/*--------------------------------*- C++ -*----------------------------------*\
  =========                 |
  \\      /  F ield         | OpenFOAM: The Open Source CFD Toolbox
   \\    /   O peration     | Website:  https://openfoam.org
    \\  /    A nd           | Version:  8
     \\/     M anipulation  |
\*---------------------------------------------------------------------------*/
FoamFile
{
    version     2.0;
    format      ascii;
    class       volScalarField;
    location    "2.4";
    object      H2;
}
// * * * * * * * * * * * * * * * * * * * * * * * * * * * * * * * * * * * * * //

dimensions      [0 1 -1 0 0 0 0];

internalField   nonuniform List<scalar> 
180000
(
-6.84377e-28
-2.21123e-23
-6.00531e-19
-1.23472e-14
-1.38507e-10
-7.3357e-28
-2.3366e-23
-6.2074e-19
-1.22073e-14
-1.13403e-10
-7.35131e-28
-2.34083e-23
-6.21593e-19
-1.2215e-14
-1.13154e-10
-7.40351e-28
-2.35505e-23
-6.24469e-19
-1.22407e-14
-1.12276e-10
-7.40571e-28
-2.35571e-23
-6.24636e-19
-1.22445e-14
-1.12371e-10
-7.41138e-28
-2.35746e-23
-6.25109e-19
-1.22564e-14
-1.12689e-10
-7.41182e-28
-2.35761e-23
-6.2516e-19
-1.22581e-14
-1.12748e-10
-7.41297e-28
-2.35802e-23
-6.25294e-19
-1.22625e-14
-1.12896e-10
-7.41308e-28
-2.35807e-23
-6.25311e-19
-1.22631e-14
-1.12919e-10
-7.41331e-28
-2.35816e-23
-6.25343e-19
-1.22642e-14
-1.12956e-10
-7.41331e-28
-2.35816e-23
-6.25343e-19
-1.22642e-14
-1.12956e-10
-7.41308e-28
-2.35807e-23
-6.25311e-19
-1.22631e-14
-1.12919e-10
-7.41297e-28
-2.35802e-23
-6.25294e-19
-1.22625e-14
-1.12896e-10
-7.41182e-28
-2.35761e-23
-6.2516e-19
-1.22581e-14
-1.12748e-10
-7.41138e-28
-2.35746e-23
-6.25109e-19
-1.22564e-14
-1.12689e-10
-7.40571e-28
-2.35571e-23
-6.24636e-19
-1.22445e-14
-1.12371e-10
-7.40351e-28
-2.35505e-23
-6.24469e-19
-1.22407e-14
-1.12276e-10
-7.35131e-28
-2.34083e-23
-6.21593e-19
-1.2215e-14
-1.13154e-10
-7.3357e-28
-2.3366e-23
-6.2074e-19
-1.22073e-14
-1.13403e-10
-6.84377e-28
-2.21123e-23
-6.00531e-19
-1.23472e-14
-1.38507e-10
-6.84363e-28
-2.21115e-23
-6.00439e-19
-1.2272e-14
-8.98624e-12
-7.33555e-28
-2.33651e-23
-6.20642e-19
-1.2121e-14
3.64239e-11
-7.35117e-28
-2.34075e-23
-6.21495e-19
-1.21286e-14
3.68746e-11
-7.40337e-28
-2.35497e-23
-6.24371e-19
-1.21542e-14
3.83015e-11
-7.40557e-28
-2.35562e-23
-6.24538e-19
-1.21581e-14
3.80989e-11
-7.41123e-28
-2.35737e-23
-6.25012e-19
-1.21703e-14
3.7373e-11
-7.41167e-28
-2.35753e-23
-6.25063e-19
-1.2172e-14
3.72494e-11
-7.41282e-28
-2.35794e-23
-6.25197e-19
-1.21765e-14
3.69129e-11
-7.41293e-28
-2.35798e-23
-6.25214e-19
-1.21772e-14
3.68656e-11
-7.41317e-28
-2.35807e-23
-6.25246e-19
-1.21783e-14
3.6778e-11
-7.41317e-28
-2.35807e-23
-6.25246e-19
-1.21783e-14
3.6778e-11
-7.41293e-28
-2.35798e-23
-6.25214e-19
-1.21772e-14
3.68656e-11
-7.41282e-28
-2.35794e-23
-6.25197e-19
-1.21765e-14
3.69129e-11
-7.41167e-28
-2.35753e-23
-6.25063e-19
-1.2172e-14
3.72494e-11
-7.41123e-28
-2.35737e-23
-6.25012e-19
-1.21703e-14
3.7373e-11
-7.40557e-28
-2.35562e-23
-6.24538e-19
-1.21581e-14
3.80989e-11
-7.40337e-28
-2.35497e-23
-6.24371e-19
-1.21542e-14
3.83015e-11
-7.35117e-28
-2.34075e-23
-6.21495e-19
-1.21286e-14
3.68746e-11
-7.33555e-28
-2.33651e-23
-6.20642e-19
-1.2121e-14
3.64239e-11
-6.84363e-28
-2.21115e-23
-6.00439e-19
-1.2272e-14
-8.98625e-12
-6.84351e-28
-2.21097e-23
-5.99565e-19
-1.1076e-14
1.93001e-09
-7.33542e-28
-2.33631e-23
-6.19697e-19
-1.08132e-14
2.16576e-09
-7.35104e-28
-2.34054e-23
-6.20551e-19
-1.08203e-14
2.16775e-09
-7.40324e-28
-2.35476e-23
-6.23429e-19
-1.08459e-14
2.17306e-09
-7.40544e-28
-2.35542e-23
-6.23597e-19
-1.08508e-14
2.17169e-09
-7.4111e-28
-2.35717e-23
-6.24074e-19
-1.08669e-14
2.16645e-09
-7.41154e-28
-2.35732e-23
-6.24126e-19
-1.08692e-14
2.16564e-09
-7.41269e-28
-2.35773e-23
-6.24261e-19
-1.08755e-14
2.16324e-09
-7.4128e-28
-2.35778e-23
-6.24279e-19
-1.08763e-14
2.16293e-09
-7.41304e-28
-2.35787e-23
-6.24311e-19
-1.08779e-14
2.16228e-09
-7.41304e-28
-2.35787e-23
-6.24311e-19
-1.08779e-14
2.16228e-09
-7.4128e-28
-2.35778e-23
-6.24279e-19
-1.08763e-14
2.16293e-09
-7.41269e-28
-2.35773e-23
-6.24261e-19
-1.08755e-14
2.16324e-09
-7.41154e-28
-2.35732e-23
-6.24126e-19
-1.08692e-14
2.16564e-09
-7.4111e-28
-2.35717e-23
-6.24074e-19
-1.08669e-14
2.16645e-09
-7.40544e-28
-2.35542e-23
-6.23597e-19
-1.08508e-14
2.17169e-09
-7.40324e-28
-2.35476e-23
-6.23429e-19
-1.08459e-14
2.17306e-09
-7.35104e-28
-2.34054e-23
-6.20551e-19
-1.08203e-14
2.16775e-09
-7.33542e-28
-2.33631e-23
-6.19697e-19
-1.08132e-14
2.16576e-09
-6.84351e-28
-2.21097e-23
-5.99565e-19
-1.1076e-14
1.93001e-09
-6.84334e-28
-2.21033e-23
-5.93911e-19
-3.53915e-15
1.28796e-08
-7.33525e-28
-2.33565e-23
-6.13721e-19
-2.80246e-15
1.38307e-08
-7.35087e-28
-2.33988e-23
-6.14577e-19
-2.80842e-15
1.38374e-08
-7.40307e-28
-2.3541e-23
-6.17475e-19
-2.84132e-15
1.38538e-08
-7.40527e-28
-2.35475e-23
-6.17648e-19
-2.85137e-15
1.38474e-08
-7.41093e-28
-2.35651e-23
-6.18147e-19
-2.88791e-15
1.38232e-08
-7.41137e-28
-2.35666e-23
-6.18202e-19
-2.89306e-15
1.38195e-08
-7.41252e-28
-2.35707e-23
-6.18347e-19
-2.90847e-15
1.38083e-08
-7.41263e-28
-2.35712e-23
-6.18366e-19
-2.91044e-15
1.38069e-08
-7.41287e-28
-2.35721e-23
-6.18401e-19
-2.91451e-15
1.38039e-08
-7.41287e-28
-2.35721e-23
-6.18401e-19
-2.91451e-15
1.38039e-08
-7.41263e-28
-2.35712e-23
-6.18366e-19
-2.91044e-15
1.38069e-08
-7.41252e-28
-2.35707e-23
-6.18347e-19
-2.90847e-15
1.38083e-08
-7.41137e-28
-2.35666e-23
-6.18202e-19
-2.89306e-15
1.38195e-08
-7.41093e-28
-2.35651e-23
-6.18147e-19
-2.88791e-15
1.38232e-08
-7.40527e-28
-2.35475e-23
-6.17648e-19
-2.85137e-15
1.38474e-08
-7.40307e-28
-2.3541e-23
-6.17475e-19
-2.84132e-15
1.38538e-08
-7.35087e-28
-2.33988e-23
-6.14577e-19
-2.80842e-15
1.38374e-08
-7.33525e-28
-2.33565e-23
-6.13721e-19
-2.80246e-15
1.38307e-08
-6.84335e-28
-2.21033e-23
-5.93911e-19
-3.53916e-15
1.28796e-08
-6.84305e-28
-2.20821e-23
-5.71017e-19
2.37098e-14
4.68617e-08
-7.33493e-28
-2.33344e-23
-5.89951e-19
2.5597e-14
4.92566e-08
-7.35056e-28
-2.33768e-23
-5.90817e-19
2.55894e-14
4.92698e-08
-7.40276e-28
-2.35191e-23
-5.93809e-19
2.55151e-14
4.92987e-08
-7.40496e-28
-2.35256e-23
-5.94002e-19
2.54892e-14
4.92807e-08
-7.41063e-28
-2.35433e-23
-5.94584e-19
2.53893e-14
4.92118e-08
-7.41107e-28
-2.35448e-23
-5.94649e-19
2.53755e-14
4.92014e-08
-7.41222e-28
-2.3549e-23
-5.9483e-19
2.53318e-14
4.91695e-08
-7.41233e-28
-2.35494e-23
-5.94853e-19
2.53265e-14
4.91655e-08
-7.41256e-28
-2.35503e-23
-5.94897e-19
2.53147e-14
4.91568e-08
-7.41256e-28
-2.35503e-23
-5.94897e-19
2.53147e-14
4.91568e-08
-7.41233e-28
-2.35494e-23
-5.94853e-19
2.53265e-14
4.91655e-08
-7.41222e-28
-2.3549e-23
-5.9483e-19
2.53318e-14
4.91695e-08
-7.41107e-28
-2.35448e-23
-5.94649e-19
2.53755e-14
4.92014e-08
-7.41063e-28
-2.35433e-23
-5.94583e-19
2.53893e-14
4.92118e-08
-7.40496e-28
-2.35256e-23
-5.94002e-19
2.54892e-14
4.92807e-08
-7.40276e-28
-2.35191e-23
-5.93809e-19
2.55151e-14
4.92987e-08
-7.35056e-28
-2.33768e-23
-5.90817e-19
2.55894e-14
4.92698e-08
-7.33493e-28
-2.33344e-23
-5.89951e-19
2.5597e-14
4.92566e-08
-6.84305e-28
-2.20821e-23
-5.71017e-19
2.37098e-14
4.68617e-08
-6.84235e-28
-2.20192e-23
-5.04568e-19
9.25308e-14
1.18413e-07
-7.33421e-28
-2.327e-23
-5.21877e-19
9.62904e-14
1.22632e-07
-7.34985e-28
-2.33125e-23
-5.22781e-19
9.62689e-14
1.22647e-07
-7.40205e-28
-2.34552e-23
-5.2607e-19
9.60602e-14
1.22664e-07
-7.40425e-28
-2.34618e-23
-5.26318e-19
9.59989e-14
1.22626e-07
-7.40992e-28
-2.34797e-23
-5.27119e-19
9.57573e-14
1.22483e-07
-7.41036e-28
-2.34813e-23
-5.27213e-19
9.57244e-14
1.22462e-07
-7.41151e-28
-2.34855e-23
-5.27491e-19
9.56176e-14
1.22396e-07
-7.41162e-28
-2.3486e-23
-5.27524e-19
9.56048e-14
1.22387e-07
-7.41186e-28
-2.34869e-23
-5.27595e-19
9.55757e-14
1.22369e-07
-7.41186e-28
-2.34869e-23
-5.27595e-19
9.55757e-14
1.22369e-07
-7.41162e-28
-2.3486e-23
-5.27524e-19
9.56048e-14
1.22387e-07
-7.41151e-28
-2.34855e-23
-5.27491e-19
9.56176e-14
1.22396e-07
-7.41036e-28
-2.34813e-23
-5.27213e-19
9.57244e-14
1.22462e-07
-7.40992e-28
-2.34797e-23
-5.27119e-19
9.57573e-14
1.22483e-07
-7.40425e-28
-2.34618e-23
-5.26318e-19
9.59989e-14
1.22626e-07
-7.40205e-28
-2.34552e-23
-5.2607e-19
9.60602e-14
1.22664e-07
-7.34985e-28
-2.33125e-23
-5.22781e-19
9.62689e-14
1.22647e-07
-7.33421e-28
-2.327e-23
-5.21877e-19
9.62904e-14
1.22632e-07
-6.84235e-28
-2.20192e-23
-5.04568e-19
9.25308e-14
1.18413e-07
-6.84064e-28
-2.18612e-23
-3.51397e-19
2.29456e-13
2.35437e-07
-7.33247e-28
-2.31102e-23
-3.66552e-19
2.35414e-13
2.41169e-07
-7.34813e-28
-2.31528e-23
-3.67558e-19
2.35351e-13
2.41173e-07
-7.40034e-28
-2.32966e-23
-3.71581e-19
2.34821e-13
2.41108e-07
-7.40254e-28
-2.33033e-23
-3.71945e-19
2.34696e-13
2.41043e-07
-7.40822e-28
-2.33219e-23
-3.73229e-19
2.34195e-13
2.40797e-07
-7.40866e-28
-2.33235e-23
-3.73383e-19
2.34128e-13
2.40761e-07
-7.40981e-28
-2.33281e-23
-3.7387e-19
2.33906e-13
2.40647e-07
-7.40993e-28
-2.33286e-23
-3.73928e-19
2.3388e-13
2.40633e-07
-7.41016e-28
-2.33296e-23
-3.74057e-19
2.33819e-13
2.40602e-07
-7.41016e-28
-2.33296e-23
-3.74057e-19
2.33819e-13
2.40602e-07
-7.40993e-28
-2.33286e-23
-3.73928e-19
2.3388e-13
2.40633e-07
-7.40981e-28
-2.33281e-23
-3.7387e-19
2.33906e-13
2.40647e-07
-7.40866e-28
-2.33235e-23
-3.73383e-19
2.34128e-13
2.40761e-07
-7.40822e-28
-2.33219e-23
-3.73229e-19
2.34195e-13
2.40797e-07
-7.40254e-28
-2.33033e-23
-3.71945e-19
2.34696e-13
2.41043e-07
-7.40034e-28
-2.32966e-23
-3.71581e-19
2.34821e-13
2.41108e-07
-7.34812e-28
-2.31528e-23
-3.67558e-19
2.35351e-13
2.41173e-07
-7.33247e-28
-2.31102e-23
-3.66552e-19
2.35414e-13
2.41169e-07
-6.84064e-28
-2.18612e-23
-3.51397e-19
2.29456e-13
2.35437e-07
-6.83672e-28
-2.15178e-23
-5.12415e-20
4.6133e-13
3.98312e-07
-7.32854e-28
-2.27654e-23
-6.45704e-20
4.69087e-13
4.0469e-07
-7.34421e-28
-2.28083e-23
-6.57968e-20
4.68933e-13
4.04663e-07
-7.39646e-28
-2.29545e-23
-7.134e-20
4.67777e-13
4.04401e-07
-7.39867e-28
-2.29617e-23
-7.19225e-20
4.67549e-13
4.04302e-07
-7.40437e-28
-2.29816e-23
-7.41172e-20
4.66628e-13
4.03918e-07
-7.40481e-28
-2.29834e-23
-7.43854e-20
4.66507e-13
4.03863e-07
-7.40597e-28
-2.29886e-23
-7.52671e-20
4.66102e-13
4.03689e-07
-7.40608e-28
-2.29891e-23
-7.53698e-20
4.66055e-13
4.03668e-07
-7.40632e-28
-2.29903e-23
-7.56067e-20
4.65943e-13
4.03619e-07
-7.40632e-28
-2.29903e-23
-7.56067e-20
4.65943e-13
4.03619e-07
-7.40608e-28
-2.29891e-23
-7.53698e-20
4.66055e-13
4.03668e-07
-7.40597e-28
-2.29886e-23
-7.52671e-20
4.66102e-13
4.03689e-07
-7.40481e-28
-2.29834e-23
-7.43854e-20
4.66507e-13
4.03863e-07
-7.40437e-28
-2.29816e-23
-7.41172e-20
4.66628e-13
4.03918e-07
-7.39867e-28
-2.29617e-23
-7.19225e-20
4.67549e-13
4.04302e-07
-7.39646e-28
-2.29545e-23
-7.13399e-20
4.67777e-13
4.04401e-07
-7.34421e-28
-2.28083e-23
-6.57968e-20
4.68933e-13
4.04663e-07
-7.32854e-28
-2.27654e-23
-6.45704e-20
4.69087e-13
4.0469e-07
-6.83672e-28
-2.15178e-23
-5.12416e-20
4.6133e-13
3.98312e-07
-6.82851e-28
-2.08512e-23
4.71957e-19
8.12908e-13
6.03292e-07
-7.32037e-28
-2.21005e-23
4.58562e-19
8.21202e-13
6.09206e-07
-7.33606e-28
-2.21442e-23
4.56922e-19
8.20889e-13
6.09121e-07
-7.38839e-28
-2.22954e-23
4.48593e-19
8.18661e-13
6.08512e-07
-7.39061e-28
-2.23031e-23
4.47641e-19
8.18283e-13
6.08368e-07
-7.39635e-28
-2.23257e-23
4.43892e-19
8.16736e-13
6.07803e-07
-7.3968e-28
-2.23279e-23
4.43433e-19
8.16537e-13
6.07726e-07
-7.39798e-28
-2.23342e-23
4.41882e-19
8.1586e-13
6.07473e-07
-7.39809e-28
-2.23349e-23
4.41704e-19
8.15782e-13
6.07443e-07
-7.39833e-28
-2.23364e-23
4.41282e-19
8.15596e-13
6.07373e-07
-7.39833e-28
-2.23364e-23
4.41282e-19
8.15596e-13
6.07373e-07
-7.39809e-28
-2.23349e-23
4.41704e-19
8.15782e-13
6.07443e-07
-7.39798e-28
-2.23342e-23
4.41882e-19
8.1586e-13
6.07473e-07
-7.3968e-28
-2.23279e-23
4.43433e-19
8.16537e-13
6.07726e-07
-7.39635e-28
-2.23257e-23
4.43892e-19
8.16736e-13
6.07803e-07
-7.39061e-28
-2.23031e-23
4.47641e-19
8.18283e-13
6.08368e-07
-7.38839e-28
-2.22954e-23
4.48593e-19
8.18661e-13
6.08512e-07
-7.33606e-28
-2.21442e-23
4.56922e-19
8.20889e-13
6.09121e-07
-7.32037e-28
-2.21005e-23
4.58562e-19
8.21202e-13
6.09206e-07
-6.82851e-28
-2.08512e-23
4.71956e-19
8.12908e-13
6.03292e-07
-6.81268e-28
-1.96684e-23
1.3082e-18
1.30606e-12
8.45359e-07
-7.30471e-28
-2.09268e-23
1.29058e-18
1.31275e-12
8.4965e-07
-7.32044e-28
-2.09719e-23
1.28824e-18
1.31219e-12
8.49481e-07
-7.37292e-28
-2.11321e-23
1.27526e-18
1.3083e-12
8.48347e-07
-7.37516e-28
-2.11409e-23
1.27373e-18
1.30772e-12
8.48147e-07
-7.38098e-28
-2.11683e-23
1.26752e-18
1.30529e-12
8.47346e-07
-7.38144e-28
-2.1171e-23
1.26676e-18
1.30498e-12
8.47241e-07
-7.38265e-28
-2.11793e-23
1.26416e-18
1.30392e-12
8.46887e-07
-7.38277e-28
-2.11802e-23
1.26386e-18
1.3038e-12
8.46846e-07
-7.38302e-28
-2.11823e-23
1.26315e-18
1.30351e-12
8.46748e-07
-7.38302e-28
-2.11823e-23
1.26315e-18
1.30351e-12
8.46748e-07
-7.38277e-28
-2.11802e-23
1.26386e-18
1.3038e-12
8.46846e-07
-7.38265e-28
-2.11793e-23
1.26416e-18
1.30392e-12
8.46887e-07
-7.38144e-28
-2.1171e-23
1.26676e-18
1.30498e-12
8.47241e-07
-7.38098e-28
-2.11683e-23
1.26752e-18
1.30529e-12
8.47346e-07
-7.37516e-28
-2.11409e-23
1.27373e-18
1.30772e-12
8.48147e-07
-7.37292e-28
-2.11321e-23
1.27526e-18
1.3083e-12
8.48347e-07
-7.32044e-28
-2.09719e-23
1.28824e-18
1.31219e-12
8.49481e-07
-7.30471e-28
-2.09268e-23
1.29058e-18
1.31275e-12
8.4965e-07
-6.81268e-28
-1.96684e-23
1.3082e-18
1.30606e-12
8.45359e-07
-6.78464e-28
-1.77772e-23
2.45612e-18
1.79746e-12
8.42885e-07
-7.27711e-28
-1.90567e-23
2.43011e-18
1.80259e-12
8.4724e-07
-7.29289e-28
-1.9104e-23
2.42679e-18
1.80178e-12
8.47075e-07
-7.34566e-28
-1.92789e-23
2.40731e-18
1.79625e-12
8.45963e-07
-7.34793e-28
-1.92895e-23
2.40499e-18
1.79546e-12
8.45766e-07
-7.35389e-28
-1.93242e-23
2.39543e-18
1.79215e-12
8.44974e-07
-7.35436e-28
-1.93278e-23
2.39427e-18
1.79174e-12
8.44871e-07
-7.35564e-28
-1.93393e-23
2.39023e-18
1.7903e-12
8.44522e-07
-7.35576e-28
-1.93406e-23
2.38978e-18
1.79014e-12
8.44481e-07
-7.35603e-28
-1.93435e-23
2.38867e-18
1.78975e-12
8.44384e-07
-7.35603e-28
-1.93435e-23
2.38867e-18
1.78975e-12
8.44384e-07
-7.35576e-28
-1.93406e-23
2.38978e-18
1.79014e-12
8.44481e-07
-7.35564e-28
-1.93393e-23
2.39023e-18
1.7903e-12
8.44522e-07
-7.35436e-28
-1.93278e-23
2.39427e-18
1.79174e-12
8.44871e-07
-7.35389e-28
-1.93242e-23
2.39543e-18
1.79215e-12
8.44974e-07
-7.34793e-28
-1.92895e-23
2.40499e-18
1.79546e-12
8.45766e-07
-7.34566e-28
-1.92789e-23
2.40731e-18
1.79625e-12
8.45963e-07
-7.29289e-28
-1.9104e-23
2.42679e-18
1.80178e-12
8.47075e-07
-7.2771e-28
-1.90567e-23
2.43011e-18
1.80259e-12
8.4724e-07
-6.78464e-28
-1.77772e-23
2.45612e-18
1.79746e-12
8.42885e-07
-6.73858e-28
-1.49865e-23
3.91425e-18
2.2871e-12
8.40475e-07
-7.2319e-28
-1.63034e-23
3.87571e-18
2.29068e-12
8.44893e-07
-7.24777e-28
-1.63541e-23
3.87114e-18
2.28963e-12
8.44733e-07
-7.30101e-28
-1.65508e-23
3.84334e-18
2.28248e-12
8.43642e-07
-7.30333e-28
-1.6564e-23
3.84003e-18
2.28148e-12
8.43447e-07
-7.30952e-28
-1.66097e-23
3.82624e-18
2.27731e-12
8.42665e-07
-7.31002e-28
-1.66146e-23
3.82457e-18
2.2768e-12
8.42563e-07
-7.31139e-28
-1.66307e-23
3.81872e-18
2.27499e-12
8.42218e-07
-7.31153e-28
-1.66325e-23
3.81806e-18
2.27479e-12
8.42177e-07
-7.31183e-28
-1.66367e-23
3.81646e-18
2.27429e-12
8.42082e-07
-7.31183e-28
-1.66367e-23
3.81646e-18
2.27429e-12
8.42082e-07
-7.31153e-28
-1.66325e-23
3.81806e-18
2.27479e-12
8.42177e-07
-7.31139e-28
-1.66307e-23
3.81872e-18
2.27499e-12
8.42218e-07
-7.31002e-28
-1.66146e-23
3.82457e-18
2.2768e-12
8.42563e-07
-7.30952e-28
-1.66097e-23
3.82624e-18
2.27731e-12
8.42665e-07
-7.30333e-28
-1.6564e-23
3.84003e-18
2.28148e-12
8.43447e-07
-7.30101e-28
-1.65508e-23
3.84334e-18
2.28248e-12
8.43642e-07
-7.24777e-28
-1.63541e-23
3.87114e-18
2.28963e-12
8.44733e-07
-7.23189e-28
-1.63034e-23
3.87571e-18
2.29068e-12
8.44893e-07
-6.73858e-28
-1.49865e-23
3.91425e-18
2.2871e-12
8.40475e-07
-6.66742e-28
-1.11064e-23
5.68108e-18
2.77489e-12
8.38124e-07
-7.16223e-28
-1.24814e-23
5.62586e-18
2.77696e-12
8.42603e-07
-7.17823e-28
-1.25368e-23
5.61978e-18
2.77567e-12
8.42446e-07
-7.2322e-28
-1.27642e-23
5.58185e-18
2.76693e-12
8.41376e-07
-7.23461e-28
-1.27808e-23
5.57736e-18
2.76573e-12
8.41184e-07
-7.24115e-28
-1.28417e-23
5.55846e-18
2.7607e-12
8.40411e-07
-7.2417e-28
-1.28484e-23
5.55619e-18
2.76008e-12
8.4031e-07
-7.24322e-28
-1.2871e-23
5.54814e-18
2.75791e-12
8.39969e-07
-7.24337e-28
-1.28734e-23
5.54725e-18
2.75766e-12
8.39929e-07
-7.24371e-28
-1.28794e-23
5.54504e-18
2.75706e-12
8.39835e-07
-7.24371e-28
-1.28794e-23
5.54504e-18
2.75706e-12
8.39835e-07
-7.24337e-28
-1.28734e-23
5.54725e-18
2.75766e-12
8.39929e-07
-7.24322e-28
-1.2871e-23
5.54814e-18
2.75791e-12
8.39969e-07
-7.2417e-28
-1.28484e-23
5.55619e-18
2.76008e-12
8.4031e-07
-7.24115e-28
-1.28417e-23
5.55846e-18
2.7607e-12
8.40411e-07
-7.23461e-28
-1.27808e-23
5.57736e-18
2.76573e-12
8.41184e-07
-7.2322e-28
-1.27642e-23
5.58185e-18
2.76693e-12
8.41376e-07
-7.17823e-28
-1.25368e-23
5.61978e-18
2.77567e-12
8.42446e-07
-7.16223e-28
-1.24814e-23
5.62586e-18
2.77696e-12
8.42603e-07
-6.66742e-28
-1.11064e-23
5.68108e-18
2.77489e-12
8.38124e-07
-6.56287e-28
-5.94801e-24
7.75498e-18
3.26078e-12
8.35827e-07
-7.06006e-28
-7.40645e-24
7.67894e-18
3.26136e-12
8.40365e-07
-7.07625e-28
-7.46796e-24
7.67108e-18
3.25984e-12
8.40212e-07
-7.1313e-28
-7.73637e-24
7.62128e-18
3.24952e-12
8.39162e-07
-7.13383e-28
-7.7576e-24
7.61541e-18
3.24812e-12
8.38972e-07
-7.14089e-28
-7.83849e-24
7.59052e-18
3.24225e-12
8.38208e-07
-7.14149e-28
-7.84752e-24
7.58755e-18
3.24153e-12
8.38108e-07
-7.14324e-28
-7.87865e-24
7.57695e-18
3.23898e-12
8.37771e-07
-7.14341e-28
-7.88206e-24
7.57578e-18
3.2387e-12
8.37732e-07
-7.14381e-28
-7.8904e-24
7.57287e-18
3.238e-12
8.37639e-07
-7.14381e-28
-7.8904e-24
7.57287e-18
3.238e-12
8.37639e-07
-7.14341e-28
-7.88206e-24
7.57578e-18
3.2387e-12
8.37732e-07
-7.14324e-28
-7.87865e-24
7.57695e-18
3.23898e-12
8.37771e-07
-7.14149e-28
-7.84752e-24
7.58755e-18
3.24153e-12
8.38108e-07
-7.14089e-28
-7.83849e-24
7.59052e-18
3.24225e-12
8.38208e-07
-7.13383e-28
-7.7576e-24
7.61541e-18
3.24812e-12
8.38972e-07
-7.1313e-28
-7.73637e-24
7.62128e-18
3.24952e-12
8.39162e-07
-7.07625e-28
-7.46796e-24
7.67108e-18
3.25984e-12
8.40212e-07
-7.06006e-28
-7.40644e-24
7.67894e-18
3.26136e-12
8.40365e-07
-6.56287e-28
-5.94801e-24
7.75498e-18
3.26078e-12
8.35827e-07
-6.41541e-28
6.76364e-25
1.01343e-17
3.74467e-12
8.3358e-07
-6.91616e-28
-8.95321e-25
1.00333e-17
3.74379e-12
8.38176e-07
-6.9326e-28
-9.64778e-25
1.00234e-17
3.74205e-12
8.38026e-07
-6.98918e-28
-1.28588e-24
9.95995e-18
3.73017e-12
8.36995e-07
-6.99188e-28
-1.31299e-24
9.95251e-18
3.72858e-12
8.36807e-07
-6.99967e-28
-1.41955e-24
9.9208e-18
3.72187e-12
8.36053e-07
-7.00036e-28
-1.43156e-24
9.91702e-18
3.72105e-12
8.35954e-07
-7.00241e-28
-1.47361e-24
9.9035e-18
3.71814e-12
8.35621e-07
-7.00262e-28
-1.47819e-24
9.90202e-18
3.71782e-12
8.35582e-07
-7.0031e-28
-1.48953e-24
9.8983e-18
3.71702e-12
8.3549e-07
-7.0031e-28
-1.48953e-24
9.8983e-18
3.71702e-12
8.3549e-07
-7.00262e-28
-1.47819e-24
9.90202e-18
3.71782e-12
8.35582e-07
-7.00241e-28
-1.47361e-24
9.9035e-18
3.71814e-12
8.35621e-07
-7.00036e-28
-1.43156e-24
9.91702e-18
3.72105e-12
8.35954e-07
-6.99967e-28
-1.41955e-24
9.9208e-18
3.72187e-12
8.36053e-07
-6.99188e-28
-1.31299e-24
9.95251e-18
3.72858e-12
8.36807e-07
-6.98918e-28
-1.28587e-24
9.95995e-18
3.73017e-12
8.36995e-07
-6.9326e-28
-9.64775e-25
1.00234e-17
3.74205e-12
8.38026e-07
-6.91616e-28
-8.95315e-25
1.00333e-17
3.74379e-12
8.38176e-07
-6.41541e-28
6.76362e-25
1.01343e-17
3.74467e-12
8.3358e-07
-6.21428e-28
8.95308e-24
1.28171e-17
4.2265e-12
8.3138e-07
-6.72011e-28
7.23378e-24
1.2687e-17
4.22418e-12
8.36031e-07
-6.73689e-28
7.15441e-24
1.26749e-17
4.22222e-12
8.35885e-07
-6.79556e-28
6.76744e-24
1.25961e-17
4.20882e-12
8.34873e-07
-6.79848e-28
6.73304e-24
1.25869e-17
4.20703e-12
8.34687e-07
-6.80727e-28
6.59451e-24
1.25476e-17
4.19949e-12
8.33941e-07
-6.80807e-28
6.57881e-24
1.25429e-17
4.19857e-12
8.33843e-07
-6.81055e-28
6.52316e-24
1.25261e-17
4.19531e-12
8.33514e-07
-6.8108e-28
6.51712e-24
1.25243e-17
4.19495e-12
8.33475e-07
-6.8114e-28
6.50204e-24
1.25196e-17
4.19405e-12
8.33384e-07
-6.8114e-28
6.50204e-24
1.25196e-17
4.19405e-12
8.33384e-07
-6.8108e-28
6.51712e-24
1.25243e-17
4.19495e-12
8.33475e-07
-6.81055e-28
6.52316e-24
1.25261e-17
4.19531e-12
8.33514e-07
-6.80807e-28
6.57881e-24
1.25429e-17
4.19857e-12
8.33843e-07
-6.80727e-28
6.59451e-24
1.25476e-17
4.19949e-12
8.33941e-07
-6.79848e-28
6.73304e-24
1.25869e-17
4.20703e-12
8.34687e-07
-6.79556e-28
6.76744e-24
1.25961e-17
4.20882e-12
8.34873e-07
-6.73689e-28
7.15442e-24
1.26749e-17
4.22222e-12
8.35885e-07
-6.72011e-28
7.23378e-24
1.2687e-17
4.22418e-12
8.36031e-07
-6.21428e-28
8.95308e-24
1.28171e-17
4.2265e-12
8.3138e-07
-5.94749e-28
1.90672e-23
1.58018e-17
4.70618e-12
8.29221e-07
-6.46033e-28
1.71613e-23
1.56384e-17
4.70246e-12
8.33927e-07
-6.47755e-28
1.70699e-23
1.56237e-17
4.70027e-12
8.33784e-07
-6.53899e-28
1.66025e-23
1.5528e-17
4.68537e-12
8.3279e-07
-6.54221e-28
1.65592e-23
1.55169e-17
4.6834e-12
8.32607e-07
-6.55232e-28
1.63817e-23
1.5469e-17
4.67504e-12
8.31869e-07
-6.55327e-28
1.63616e-23
1.54633e-17
4.67402e-12
8.31772e-07
-6.5563e-28
1.62894e-23
1.54429e-17
4.67041e-12
8.31447e-07
-6.55662e-28
1.62816e-23
1.54407e-17
4.67001e-12
8.31408e-07
-6.55737e-28
1.62619e-23
1.54351e-17
4.66901e-12
8.31319e-07
-6.55737e-28
1.62619e-23
1.54351e-17
4.66901e-12
8.31319e-07
-6.55661e-28
1.62816e-23
1.54407e-17
4.67001e-12
8.31408e-07
-6.5563e-28
1.62894e-23
1.54429e-17
4.67041e-12
8.31447e-07
-6.55327e-28
1.63616e-23
1.54633e-17
4.67402e-12
8.31772e-07
-6.55232e-28
1.63817e-23
1.5469e-17
4.67504e-12
8.31869e-07
-6.54221e-28
1.65592e-23
1.55169e-17
4.6834e-12
8.32607e-07
-6.53899e-28
1.66025e-23
1.5528e-17
4.68537e-12
8.3279e-07
-6.47755e-28
1.70699e-23
1.56237e-17
4.70027e-12
8.33784e-07
-6.46032e-28
1.71614e-23
1.56384e-17
4.70246e-12
8.33927e-07
-5.94749e-28
1.90672e-23
1.58018e-17
4.70618e-12
8.29221e-07
-5.60185e-28
3.12026e-23
1.90862e-17
5.18362e-12
8.27101e-07
-6.12403e-28
2.90665e-23
1.88855e-17
5.17852e-12
8.31859e-07
-6.14182e-28
2.89606e-23
1.8868e-17
5.17613e-12
8.3172e-07
-6.20686e-28
2.83968e-23
1.87537e-17
5.15974e-12
8.30744e-07
-6.21046e-28
2.8343e-23
1.87404e-17
5.15759e-12
8.30563e-07
-6.22227e-28
2.81189e-23
1.86832e-17
5.14842e-12
8.29833e-07
-6.22341e-28
2.80934e-23
1.86765e-17
5.14731e-12
8.29737e-07
-6.22717e-28
2.80014e-23
1.86521e-17
5.14335e-12
8.29415e-07
-6.22756e-28
2.79915e-23
1.86495e-17
5.14291e-12
8.29378e-07
-6.22851e-28
2.79664e-23
1.86427e-17
5.14182e-12
8.29289e-07
-6.22851e-28
2.79664e-23
1.86427e-17
5.14182e-12
8.29289e-07
-6.22756e-28
2.79915e-23
1.86495e-17
5.14291e-12
8.29378e-07
-6.22717e-28
2.80014e-23
1.86521e-17
5.14335e-12
8.29415e-07
-6.22341e-28
2.80934e-23
1.86765e-17
5.14731e-12
8.29737e-07
-6.22227e-28
2.81189e-23
1.86832e-17
5.14842e-12
8.29833e-07
-6.21046e-28
2.8343e-23
1.87404e-17
5.15759e-12
8.30563e-07
-6.20685e-28
2.83968e-23
1.87537e-17
5.15974e-12
8.30744e-07
-6.14182e-28
2.89606e-23
1.8868e-17
5.17613e-12
8.3172e-07
-6.12403e-28
2.90665e-23
1.88855e-17
5.17852e-12
8.31859e-07
-5.60185e-28
3.12026e-23
1.90862e-17
5.18362e-12
8.27101e-07
-5.16294e-28
4.55416e-23
2.26684e-17
5.65875e-12
8.25011e-07
-5.6973e-28
4.3127e-23
2.24262e-17
5.65229e-12
8.29821e-07
-5.7158e-28
4.30041e-23
2.24058e-17
5.64969e-12
8.29686e-07
-5.7854e-28
4.23265e-23
2.22712e-17
5.63186e-12
8.28727e-07
-5.78949e-28
4.22603e-23
2.22557e-17
5.62952e-12
8.28548e-07
-5.80345e-28
4.19814e-23
2.21883e-17
5.61956e-12
8.27826e-07
-5.80484e-28
4.19496e-23
2.21804e-17
5.61835e-12
8.27731e-07
-5.8095e-28
4.18343e-23
2.21517e-17
5.61405e-12
8.27412e-07
-5.80999e-28
4.18219e-23
2.21486e-17
5.61357e-12
8.27375e-07
-5.81119e-28
4.17904e-23
2.21407e-17
5.61239e-12
8.27287e-07
-5.81119e-28
4.17904e-23
2.21407e-17
5.61239e-12
8.27287e-07
-5.80999e-28
4.18219e-23
2.21486e-17
5.61357e-12
8.27375e-07
-5.8095e-28
4.18343e-23
2.21517e-17
5.61405e-12
8.27412e-07
-5.80484e-28
4.19496e-23
2.21804e-17
5.61835e-12
8.27731e-07
-5.80345e-28
4.19814e-23
2.21883e-17
5.61956e-12
8.27826e-07
-5.78949e-28
4.22603e-23
2.22557e-17
5.62952e-12
8.28548e-07
-5.7854e-28
4.23265e-23
2.22712e-17
5.63186e-12
8.28727e-07
-5.7158e-28
4.30041e-23
2.24058e-17
5.64969e-12
8.29685e-07
-5.69729e-28
4.3127e-23
2.24262e-17
5.65229e-12
8.29821e-07
-5.16294e-28
4.55416e-23
2.26684e-17
5.65875e-12
8.25011e-07
-4.61512e-28
6.22651e-23
2.65464e-17
6.13144e-12
8.22921e-07
-5.16502e-28
5.9519e-23
2.62585e-17
6.12366e-12
8.27781e-07
-5.18441e-28
5.93763e-23
2.62348e-17
6.12086e-12
8.27649e-07
-5.25969e-28
5.85664e-23
2.60785e-17
6.10161e-12
8.26708e-07
-5.26439e-28
5.84859e-23
2.60605e-17
6.09909e-12
8.26531e-07
-5.28103e-28
5.81431e-23
2.59823e-17
6.08834e-12
8.25817e-07
-5.28272e-28
5.81041e-23
2.59731e-17
6.08704e-12
8.25723e-07
-5.28852e-28
5.79616e-23
2.59397e-17
6.08241e-12
8.25408e-07
-5.28913e-28
5.79464e-23
2.59361e-17
6.08189e-12
8.25371e-07
-5.29064e-28
5.79075e-23
2.5927e-17
6.08062e-12
8.25284e-07
-5.29064e-28
5.79075e-23
2.5927e-17
6.08062e-12
8.25284e-07
-5.28913e-28
5.79464e-23
2.59361e-17
6.08189e-12
8.25371e-07
-5.28852e-28
5.79616e-23
2.59397e-17
6.08241e-12
8.25408e-07
-5.28272e-28
5.81041e-23
2.59731e-17
6.08704e-12
8.25723e-07
-5.28103e-28
5.81431e-23
2.59823e-17
6.08834e-12
8.25817e-07
-5.26439e-28
5.84859e-23
2.60605e-17
6.09909e-12
8.26531e-07
-5.25969e-28
5.85664e-23
2.60785e-17
6.10161e-12
8.26708e-07
-5.1844e-28
5.93763e-23
2.62348e-17
6.12086e-12
8.27649e-07
-5.16502e-28
5.9519e-23
2.62585e-17
6.12366e-12
8.27781e-07
-4.61512e-28
6.22651e-23
2.65464e-17
6.13144e-12
8.22921e-07
5.2142e-06
-9.01498e-07
-7.34933e-08
-7.80872e-10
-1.36642e-12
1.14802e-15
1.65312e-15
1.65724e-15
1.65813e-15
1.65827e-15
1.65839e-15
1.65908e-15
1.6627e-15
1.66722e-15
1.70518e-15
1.73836e-15
2.09039e-15
2.28418e-15
7.237e-15
8.46975e-15
7.69634e-06
-6.80497e-07
-7.29887e-08
-8.30875e-10
-1.528e-12
1.06776e-15
1.65298e-15
1.6572e-15
1.6581e-15
1.65825e-15
1.65829e-15
1.65885e-15
1.66254e-15
1.66714e-15
1.70573e-15
1.73929e-15
2.09576e-15
2.29081e-15
7.29935e-15
8.54577e-15
7.72883e-06
-6.77868e-07
-7.29523e-08
-8.30908e-10
-1.52864e-12
1.06721e-15
1.65298e-15
1.6572e-15
1.65811e-15
1.65825e-15
1.65829e-15
1.65886e-15
1.66256e-15
1.66716e-15
1.70576e-15
1.73933e-15
2.09587e-15
2.29092e-15
7.29996e-15
8.54638e-15
7.84161e-06
-6.68375e-07
-7.26482e-08
-8.27766e-10
-1.52272e-12
1.0688e-15
1.65297e-15
1.6572e-15
1.65811e-15
1.65825e-15
1.65831e-15
1.65892e-15
1.66263e-15
1.66724e-15
1.70588e-15
1.73947e-15
2.09621e-15
2.29129e-15
7.30183e-15
8.54804e-15
7.83423e-06
-6.69056e-07
-7.26421e-08
-8.27485e-10
-1.52191e-12
1.06913e-15
1.65297e-15
1.6572e-15
1.65811e-15
1.65825e-15
1.65831e-15
1.65893e-15
1.66263e-15
1.66724e-15
1.70588e-15
1.73947e-15
2.09622e-15
2.2913e-15
7.30188e-15
8.54807e-15
7.80912e-06
-6.71316e-07
-7.25921e-08
-8.26156e-10
-1.51843e-12
1.07051e-15
1.65297e-15
1.6572e-15
1.65811e-15
1.65825e-15
1.65831e-15
1.65893e-15
1.66264e-15
1.66724e-15
1.70589e-15
1.73948e-15
2.09624e-15
2.29132e-15
7.30194e-15
8.54812e-15
7.80411e-06
-6.71775e-07
-7.25918e-08
-8.26043e-10
-1.51808e-12
1.07066e-15
1.65297e-15
1.6572e-15
1.65811e-15
1.65825e-15
1.65831e-15
1.65893e-15
1.66264e-15
1.66724e-15
1.70589e-15
1.73948e-15
2.09624e-15
2.29132e-15
7.30194e-15
8.54812e-15
7.79159e-06
-6.72916e-07
-7.2579e-08
-8.25596e-10
-1.51689e-12
1.07113e-15
1.65297e-15
1.6572e-15
1.65811e-15
1.65825e-15
1.65831e-15
1.65893e-15
1.66264e-15
1.66724e-15
1.70589e-15
1.73948e-15
2.09624e-15
2.29132e-15
7.30195e-15
8.54812e-15
7.78969e-06
-6.73096e-07
-7.25793e-08
-8.25561e-10
-1.51678e-12
1.07118e-15
1.65297e-15
1.6572e-15
1.65811e-15
1.65825e-15
1.65831e-15
1.65893e-15
1.66264e-15
1.66724e-15
1.70589e-15
1.73948e-15
2.09624e-15
2.29132e-15
7.30195e-15
8.54812e-15
7.78648e-06
-6.73394e-07
-7.25766e-08
-8.25457e-10
-1.5165e-12
1.07129e-15
1.65297e-15
1.6572e-15
1.65811e-15
1.65825e-15
1.65831e-15
1.65893e-15
1.66264e-15
1.66724e-15
1.70589e-15
1.73948e-15
2.09624e-15
2.29132e-15
7.30195e-15
8.54812e-15
7.78648e-06
-6.73394e-07
-7.25766e-08
-8.25457e-10
-1.5165e-12
1.07129e-15
1.65297e-15
1.6572e-15
1.65811e-15
1.65825e-15
1.65831e-15
1.65893e-15
1.66264e-15
1.66724e-15
1.70589e-15
1.73948e-15
2.09624e-15
2.29132e-15
7.30195e-15
8.54812e-15
7.78969e-06
-6.73096e-07
-7.25793e-08
-8.25561e-10
-1.51678e-12
1.07118e-15
1.65297e-15
1.6572e-15
1.65811e-15
1.65825e-15
1.65831e-15
1.65893e-15
1.66264e-15
1.66724e-15
1.70589e-15
1.73948e-15
2.09624e-15
2.29132e-15
7.30195e-15
8.54812e-15
7.79159e-06
-6.72916e-07
-7.2579e-08
-8.25596e-10
-1.51689e-12
1.07113e-15
1.65297e-15
1.6572e-15
1.65811e-15
1.65825e-15
1.65831e-15
1.65893e-15
1.66264e-15
1.66724e-15
1.70589e-15
1.73948e-15
2.09624e-15
2.29132e-15
7.30195e-15
8.54812e-15
7.80411e-06
-6.71775e-07
-7.25918e-08
-8.26043e-10
-1.51808e-12
1.07066e-15
1.65297e-15
1.6572e-15
1.65811e-15
1.65825e-15
1.65831e-15
1.65893e-15
1.66264e-15
1.66724e-15
1.70589e-15
1.73948e-15
2.09624e-15
2.29132e-15
7.30194e-15
8.54812e-15
7.80912e-06
-6.71316e-07
-7.25921e-08
-8.26156e-10
-1.51843e-12
1.07051e-15
1.65297e-15
1.6572e-15
1.65811e-15
1.65825e-15
1.65831e-15
1.65893e-15
1.66264e-15
1.66724e-15
1.70589e-15
1.73948e-15
2.09624e-15
2.29132e-15
7.30194e-15
8.54812e-15
7.83423e-06
-6.69056e-07
-7.26421e-08
-8.27485e-10
-1.52191e-12
1.06913e-15
1.65297e-15
1.6572e-15
1.65811e-15
1.65825e-15
1.65831e-15
1.65893e-15
1.66263e-15
1.66724e-15
1.70588e-15
1.73947e-15
2.09622e-15
2.2913e-15
7.30188e-15
8.54807e-15
7.84161e-06
-6.68375e-07
-7.26482e-08
-8.27766e-10
-1.52272e-12
1.0688e-15
1.65297e-15
1.6572e-15
1.65811e-15
1.65825e-15
1.65831e-15
1.65892e-15
1.66263e-15
1.66724e-15
1.70588e-15
1.73947e-15
2.09621e-15
2.29129e-15
7.30183e-15
8.54804e-15
7.72883e-06
-6.77867e-07
-7.29523e-08
-8.30908e-10
-1.52864e-12
1.06721e-15
1.65298e-15
1.6572e-15
1.65811e-15
1.65825e-15
1.65829e-15
1.65886e-15
1.66256e-15
1.66716e-15
1.70576e-15
1.73933e-15
2.09587e-15
2.29092e-15
7.29996e-15
8.54638e-15
7.69634e-06
-6.80497e-07
-7.29887e-08
-8.30875e-10
-1.528e-12
1.06776e-15
1.65298e-15
1.6572e-15
1.6581e-15
1.65825e-15
1.65829e-15
1.65885e-15