/*--------------------------------*- C++ -*----------------------------------*\
  =========                 |
  \\      /  F ield         | OpenFOAM: The Open Source CFD Toolbox
   \\    /   O peration     | Website:  https://openfoam.org
    \\  /    A nd           | Version:  8
     \\/     M anipulation  |
\*---------------------------------------------------------------------------*/
FoamFile
{
    version     2.0;
    format      ascii;
    class       volScalarField;
    location    "2.4";
    object      p;
}
// * * * * * * * * * * * * * * * * * * * * * * * * * * * * * * * * * * * * * //

dimensions      [0 2 -2 0 0 0 0];

internalField   nonuniform List<scalar> 
180000
(
0.00091774
0.000855733
0.000895384
0.000761764
0.000832923
0.000903213
0.000841444
0.000880808
0.000748535
0.000818515
0.000902523
0.000840785
0.000880116
0.000747959
0.000817862
0.000898457
0.000836877
0.000876035
0.000744515
0.000814029
0.000898047
0.000836487
0.000875621
0.000744174
0.00081364
0.000896332
0.000834849
0.000873894
0.000742736
0.00081202
0.000896129
0.000834655
0.000873687
0.000742566
0.000811825
0.000895405
0.000833965
0.000872957
0.00074196
0.000811139
0.000895325
0.000833888
0.000872876
0.000741892
0.000811062
0.000895125
0.000833698
0.000872674
0.000741724
0.000810872
0.000895125
0.000833698
0.000872674
0.000741724
0.000810872
0.000895325
0.000833888
0.000872876
0.000741892
0.000811062
0.000895405
0.000833965
0.000872957
0.00074196
0.000811139
0.000896129
0.000834655
0.000873687
0.000742566
0.000811825
0.000896332
0.000834849
0.000873894
0.000742736
0.00081202
0.000898047
0.000836487
0.000875621
0.000744174
0.00081364
0.000898457
0.000836877
0.000876035
0.000744515
0.000814029
0.000902523
0.000840785
0.000880116
0.000747959
0.000817862
0.000903213
0.000841444
0.000880808
0.000748535
0.000818515
0.00091774
0.000855733
0.000895384
0.000761764
0.000832923
0.000741925
0.000714288
0.000732906
0.000664195
0.000703601
0.000735853
0.000707397
0.000726474
0.000656596
0.000696312
0.000735559
0.000707073
0.000726163
0.00065626
0.000695976
0.000733782
0.000705112
0.000724283
0.000654214
0.000693961
0.000733603
0.000704917
0.000724093
0.000654011
0.000693757
0.000732846
0.000704088
0.00072329
0.000653153
0.0006929
0.000732757
0.000703991
0.000723194
0.000653051
0.000692797
0.000732436
0.000703641
0.000722853
0.000652688
0.000692433
0.0007324
0.000703602
0.000722815
0.000652648
0.000692392
0.000732312
0.000703505
0.000722721
0.000652547
0.000692291
0.000732312
0.000703505
0.000722721
0.000652547
0.000692291
0.0007324
0.000703602
0.000722815
0.000652648
0.000692392
0.000732436
0.000703641
0.000722853
0.000652688
0.000692433
0.000732757
0.000703991
0.000723194
0.000653051
0.000692797
0.000732846
0.000704088
0.00072329
0.000653153
0.0006929
0.000733603
0.000704917
0.000724093
0.000654011
0.000693757
0.000733782
0.000705112
0.000724283
0.000654214
0.000693961
0.000735559
0.000707073
0.000726163
0.00065626
0.000695976
0.000735853
0.000707397
0.000726474
0.000656596
0.000696312
0.000741925
0.000714288
0.000732906
0.000664195
0.000703601
0.000533294
0.000511029
0.000526462
0.000472244
0.000505658
0.000528336
0.000505699
0.000521325
0.000466688
0.000500093
0.000528097
0.000505449
0.000521078
0.000466441
0.000499836
0.000526618
0.000503898
0.000519546
0.000464904
0.000498257
0.000526472
0.000503746
0.000519393
0.000464754
0.000498099
0.000525843
0.000503092
0.00051874
0.000464109
0.000497428
0.000525769
0.000503015
0.000518663
0.000464033
0.000497348
0.000525503
0.000502739
0.000518385
0.00046376
0.000497063
0.000525474
0.000502709
0.000518355
0.00046373
0.000497031
0.0005254
0.000502632
0.000518278
0.000463655
0.000496953
0.0005254
0.000502632
0.000518278
0.000463655
0.000496953
0.000525474
0.000502709
0.000518355
0.00046373
0.000497031
0.000525503
0.000502739
0.000518385
0.00046376
0.000497063
0.000525769
0.000503015
0.000518663
0.000464033
0.000497348
0.000525843
0.000503092
0.00051874
0.000464109
0.000497428
0.000526472
0.000503746
0.000519393
0.000464754
0.000498099
0.000526618
0.000503898
0.000519546
0.000464904
0.000498257
0.000528097
0.000505449
0.000521078
0.000466441
0.000499836
0.000528336
0.000505699
0.000521325
0.000466688
0.000500093
0.000533294
0.000511029
0.000526462
0.000472244
0.000505658
0.000500073
0.000473635
0.000492035
0.000430295
0.000470468
0.000494057
0.000467541
0.000485943
0.000424402
0.000464241
0.000493766
0.000467255
0.000485648
0.00042414
0.000463951
0.000491969
0.000465472
0.000483826
0.000422489
0.000462166
0.000491792
0.000465298
0.000483645
0.000422329
0.000461988
0.00049103
0.000464547
0.000482869
0.000421637
0.00046123
0.000490941
0.00046446
0.000482778
0.000421557
0.000461141
0.000490619
0.000464143
0.00048245
0.000421264
0.000460819
0.000490583
0.000464109
0.000482414
0.000421232
0.000460783
0.000490494
0.000464021
0.000482323
0.000421151
0.000460694
0.000490494
0.000464021
0.000482323
0.000421151
0.000460694
0.000490583
0.000464109
0.000482414
0.000421232
0.000460783
0.000490619
0.000464143
0.00048245
0.000421264
0.000460819
0.000490941
0.00046446
0.000482778
0.000421557
0.000461141
0.00049103
0.000464547
0.000482869
0.000421637
0.00046123
0.000491792
0.000465298
0.000483645
0.000422329
0.000461988
0.000491969
0.000465472
0.000483826
0.000422489
0.000462166
0.000493766
0.000467255
0.000485648
0.00042414
0.000463951
0.000494057
0.000467541
0.000485943
0.000424402
0.000464241
0.000500073
0.000473635
0.000492035
0.000430295
0.000470468
0.000523498
0.000495556
0.000515353
0.000449391
0.000495241
0.000517164
0.000489134
0.000508937
0.00044319
0.000488704
0.000516854
0.00048883
0.000508623
0.00044291
0.000488395
0.000514933
0.000486922
0.000506674
0.000441145
0.000486484
0.000514743
0.000486736
0.000506481
0.000440974
0.000486294
0.000513928
0.000485932
0.000505651
0.000440234
0.000485482
0.000513833
0.000485839
0.000505554
0.000440148
0.000485386
0.000513488
0.000485499
0.000505202
0.000439835
0.000485041
0.00051345
0.000485462
0.000505163
0.0004398
0.000485003
0.000513355
0.000485369
0.000505066
0.000439714
0.000484908
0.000513355
0.000485369
0.000505066
0.000439714
0.000484908
0.00051345
0.000485462
0.000505163
0.0004398
0.000485003
0.000513488
0.000485499
0.000505202
0.000439835
0.000485041
0.000513833
0.000485839
0.000505554
0.000440148
0.000485386
0.000513928
0.000485932
0.000505651
0.000440234
0.000485482
0.000514743
0.000486736
0.000506481
0.000440974
0.000486294
0.000514933
0.000486922
0.000506674
0.000441145
0.000486484
0.000516854
0.00048883
0.000508623
0.00044291
0.000488395
0.000517164
0.000489134
0.000508937
0.00044319
0.000488704
0.000523498
0.000495556
0.000515353
0.000449391
0.000495241
0.000536115
0.000508812
0.00052865
0.000462896
0.000512332
0.000529979
0.000502543
0.000522418
0.000456778
0.000505952
0.000529676
0.000502242
0.00052211
0.000456499
0.000505646
0.000527775
0.000500341
0.000520177
0.000454722
0.000503734
0.000527588
0.000500156
0.000519986
0.00045455
0.000503544
0.00052678
0.000499354
0.000519162
0.000453803
0.00050273
0.000526686
0.000499261
0.000519065
0.000453717
0.000502634
0.000526344
0.000498922
0.000518716
0.000453401
0.000502289
0.000526307
0.000498885
0.000518677
0.000453367
0.000502251
0.000526212
0.000498791
0.00051858
0.000453279
0.000502155
0.000526212
0.000498791
0.00051858
0.000453279
0.000502155
0.000526307
0.000498885
0.000518677
0.000453367
0.000502251
0.000526344
0.000498922
0.000518716
0.000453401
0.000502289
0.000526686
0.000499261
0.000519065
0.000453717
0.000502634
0.00052678
0.000499354
0.000519162
0.000453803
0.00050273
0.000527588
0.000500156
0.000519986
0.00045455
0.000503544
0.000527775
0.000500341
0.000520177
0.000454722
0.000503734
0.000529676
0.000502242
0.00052211
0.000456499
0.000505646
0.000529979
0.000502543
0.000522418
0.000456778
0.000505952
0.000536115
0.000508812
0.00052865
0.000462896
0.000512332
0.000535838
0.000509308
0.000529077
0.000464269
0.000516987
0.000529918
0.000503248
0.000523062
0.000458335
0.00051083
0.000529623
0.000502954
0.000522763
0.000458062
0.00051053
0.000527751
0.000501079
0.000520858
0.000456301
0.000508636
0.000527568
0.000500897
0.000520671
0.000456131
0.000508449
0.000526771
0.000500105
0.000519857
0.00045539
0.000507642
0.000526679
0.000500013
0.000519763
0.000455305
0.000507548
0.000526341
0.000499678
0.000519418
0.000454991
0.000507205
0.000526305
0.000499642
0.00051938
0.000454957
0.000507167
0.000526211
0.000499549
0.000519284
0.000454871
0.000507072
0.000526211
0.000499549
0.000519284
0.000454871
0.000507072
0.000526305
0.000499642
0.00051938
0.000454957
0.000507167
0.000526341
0.000499678
0.000519418
0.000454991
0.000507205
0.000526679
0.000500013
0.000519763
0.000455305
0.000507548
0.000526771
0.000500105
0.000519857
0.00045539
0.000507642
0.000527568
0.000500897
0.000520671
0.000456131
0.000508449
0.000527751
0.000501079
0.000520858
0.000456301
0.000508636
0.000529623
0.000502954
0.000522763
0.000458062
0.00051053
0.000529918
0.000503248
0.000523062
0.000458335
0.00051083
0.000535838
0.000509308
0.000529077
0.000464269
0.000516987
0.000533105
0.000506989
0.0005269
0.000462527
0.000518603
0.00052731
0.000501065
0.000521018
0.000456734
0.000512597
0.000527019
0.000500776
0.000520722
0.000456465
0.000512301
0.000525153
0.000498909
0.000518825
0.000454711
0.00051041
0.000524971
0.000498729
0.000518639
0.000454543
0.000510224
0.000524176
0.000497938
0.000517828
0.000453805
0.000509417
0.000524084
0.000497848
0.000517734
0.00045372
0.000509323
0.000523747
0.000497513
0.000517389
0.000453407
0.00050898
0.000523711
0.000497477
0.000517352
0.000453373
0.000508943
0.000523617
0.000497385
0.000517256
0.000453286
0.000508848
0.000523617
0.000497385
0.000517256
0.000453286
0.000508848
0.000523711
0.000497477
0.000517352
0.000453373
0.000508943
0.000523747
0.000497513
0.000517389
0.000453407
0.00050898
0.000524084
0.000497848
0.000517734
0.00045372
0.000509323
0.000524176
0.000497938
0.000517828
0.000453805
0.000509417
0.000524971
0.000498729
0.000518639
0.000454543
0.000510224
0.000525153
0.000498909
0.000518825
0.000454711
0.00051041
0.000527019
0.000500776
0.000520722
0.000456465
0.000512301
0.00052731
0.000501065
0.000521018
0.000456734
0.000512597
0.000533105
0.000506989
0.0005269
0.000462527
0.000518603
0.000531797
0.000505946
0.000526083
0.00046191
0.000520988
0.000526093
0.000500124
0.000520299
0.000456224
0.00051509
0.000525803
0.000499838
0.000520006
0.000455957
0.000514796
0.000523935
0.00049797
0.000518107
0.000454203
0.0005129
0.000523753
0.000497791
0.000517922
0.000454036
0.000512714
0.000522956
0.000496999
0.000517108
0.000453296
0.000511904
0.000522864
0.000496908
0.000517015
0.000453211
0.00051181
0.000522526
0.000496573
0.000516669
0.000452898
0.000511465
0.000522489
0.000496537
0.000516632
0.000452864
0.000511428
0.000522396
0.000496445
0.000516536
0.000452777
0.000511332
0.000522396
0.000496445
0.000516536
0.000452777
0.000511332
0.000522489
0.000496537
0.000516632
0.000452864
0.000511428
0.000522526
0.000496573
0.000516669
0.000452898
0.000511465
0.000522864
0.000496908
0.000517015
0.000453211
0.00051181
0.000522956
0.000496999
0.000517108
0.000453296
0.000511904
0.000523753
0.000497791
0.000517922
0.000454036
0.000512714
0.000523935
0.00049797
0.000518107
0.000454203
0.0005129
0.000525803
0.000499838
0.000520006
0.000455957
0.000514796
0.000526093
0.000500124
0.000520299
0.000456224
0.00051509
0.000531797
0.000505946
0.000526083
0.00046191
0.000520988
0.00053142
0.000505843
0.00052619
0.000462293
0.000523656
0.00052581
0.000500123
0.000520506
0.000456706
0.000517855
0.000525524
0.00049984
0.000520216
0.000456442
0.000517562
0.000523654
0.000497972
0.000518317
0.000454687
0.000515661
0.000523473
0.000497793
0.000518132
0.00045452
0.000515476
0.000522674
0.000497
0.000517317
0.000453778
0.000514662
0.000522582
0.00049691
0.000517224
0.000453694
0.000514568
0.000522243
0.000496574
0.000516877
0.000453379
0.000514222
0.000522207
0.000496538
0.00051684
0.000453346
0.000514184
0.000522113
0.000496445
0.000516744
0.000453258
0.000514088
0.000522113
0.000496445
0.000516744
0.000453258
0.000514088
0.000522207
0.000496538
0.00051684
0.000453346
0.000514184
0.000522243
0.000496574
0.000516877
0.000453379
0.000514222
0.000522582
0.00049691
0.000517224
0.000453694
0.000514568
0.000522674
0.000497
0.000517317
0.000453778
0.000514662
0.000523473
0.000497793
0.000518132
0.00045452
0.000515476
0.000523654
0.000497972
0.000518317
0.000454687
0.000515661
0.000525524
0.00049984
0.000520216
0.000456442
0.000517562
0.00052581
0.000500123
0.000520506
0.000456706
0.000517855
0.00053142
0.000505843
0.00052619
0.000462293
0.000523656
0.00053113
0.000505847
0.000526378
0.000462872
0.000525464
0.00052562
0.000500233
0.000520799
0.000457387
0.000519747
0.000525336
0.000499952
0.000520511
0.000457126
0.000519456
0.000523468
0.000498087
0.000518614
0.000455371
0.00051755
0.000523288
0.000497909
0.000518431
0.000455204
0.000517365
0.000522488
0.000497115
0.000517615
0.000454461
0.000516548
0.000522397
0.000497026
0.000517522
0.000454377
0.000516454
0.000522057
0.000496689
0.000517175
0.000454061
0.000516106
0.000522021
0.000496654
0.000517138
0.000454028
0.000516068
0.000521927
0.000496561
0.000517042
0.00045394
0.000515972
0.000521927
0.000496561
0.000517042
0.00045394
0.000515972
0.000522021
0.000496654
0.000517138
0.000454028
0.000516068
0.000522057
0.000496689
0.000517175
0.000454061
0.000516106
0.000522397
0.000497026
0.000517522
0.000454377
0.000516454
0.000522488
0.000497115
0.000517615
0.000454461
0.000516548
0.000523288
0.000497909
0.000518431
0.000455204
0.000517365
0.000523468
0.000498087
0.000518614
0.000455371
0.00051755
0.000525336
0.000499952
0.000520511
0.000457126
0.000519456
0.00052562
0.000500233
0.000520799
0.000457387
0.000519747
0.00053113
0.000505847
0.000526378
0.000462872
0.000525464
0.000530723
0.000505732
0.000526433
0.000463346
0.000524177
0.000525313
0.000500223
0.000520958
0.000457963
0.000518558
0.000525032
0.000499945
0.000520674
0.000457704
0.00051827
0.000523166
0.000498082
0.00051878
0.000455949
0.000516367
0.000522988
0.000497905
0.000518597
0.000455784
0.000516183
0.000522187
0.000497111
0.000517782
0.000455039
0.000515366
0.000522096
0.000497022
0.000517689
0.000454955
0.000515272
0.000521756
0.000496686
0.000517341
0.000454639
0.000514924
0.00052172
0.00049665
0.000517304
0.000454605
0.000514886
0.000521626
0.000496557
0.000517208
0.000454518
0.00051479
0.000521626
0.000496557
0.000517208
0.000454518
0.00051479
0.00052172
0.00049665
0.000517304
0.000454605
0.000514886
0.000521756
0.000496686
0.000517341
0.000454639
0.000514924
0.000522096
0.000497022
0.000517689
0.000454955
0.000515272
0.000522187
0.000497111
0.000517782
0.000455039
0.000515366
0.000522987
0.000497905
0.000518597
0.000455784
0.000516183
0.000523166
0.000498082
0.00051878
0.000455949
0.000516367
0.000525032
0.000499945
0.000520674
0.000457704
0.00051827
0.000525313
0.000500223
0.000520958
0.000457963
0.000518558
0.000530723
0.000505732
0.000526433
0.000463346
0.000524177
0.000530279
0.000505565
0.000526431
0.000463689
0.000522009
0.000524966
0.000500158
0.000521057
0.000458405
0.000516492
0.000524687
0.000499883
0.000520776
0.000458149
0.000516207
0.000522824
0.000498023
0.000518885
0.000456395
0.000514311
0.000522646
0.000497848
0.000518703
0.000456231
0.000514128
0.000521845
0.000497054
0.000517887
0.000455485
0.000513311
0.000521754
0.000496965
0.000517795
0.000455402
0.000513218
0.000521414
0.000496628
0.000517447
0.000455085
0.00051287
0.000521378
0.000496592
0.00051741
0.000455051
0.000512832
0.000521283
0.000496499
0.000517314
0.000454964
0.000512736
0.000521283
0.000496499
0.000517314
0.000454964
0.000512736
0.000521378
0.000496592
0.00051741
0.000455051
0.000512832
0.000521414
0.000496628
0.000517447
0.000455085
0.00051287
0.000521754
0.000496965
0.000517795
0.000455402
0.000513218
0.000521845
0.000497054
0.000517887
0.000455485
0.000513311
0.000522646
0.000497848
0.000518703
0.000456231
0.000514128
0.000522824
0.000498023
0.000518885
0.000456395
0.000514311
0.000524687
0.000499883
0.000520776
0.000458149
0.000516207
0.000524966
0.000500158
0.000521057
0.000458405
0.000516492
0.000530279
0.000505565
0.000526431
0.000463689
0.000522009
0.000529859
0.00050541
0.000526435
0.000463948
0.000520105
0.000524639
0.000500102
0.00052116
0.000458762
0.000514686
0.000524363
0.00049983
0.000520881
0.000458508
0.000514405
0.000522503
0.000497974
0.000518994
0.000456757
0.000512514
0.000522326
0.000497799
0.000518813
0.000456593
0.000512332
0.000521524
0.000497005
0.000517997
0.000455847
0.000511516
0.000521434
0.000496917
0.000517905
0.000455763
0.000511423
0.000521093
0.000496579
0.000517557
0.000455446
0.000511075
0.000521057
0.000496544
0.00051752
0.000455413
0.000511038
0.000520963
0.000496451
0.000517424
0.000455325
0.000510941
0.000520963
0.000496451
0.000517424
0.000455325
0.000510941
0.000521057
0.000496544
0.00051752
0.000455413
0.000511038
0.000521093
0.000496579
0.000517557
0.000455446
0.000511075
0.000521434
0.000496917
0.000517905
0.000455763
0.000511423
0.000521524
0.000497005
0.000517997
0.000455847
0.000511516
0.000522326
0.000497799
0.000518813
0.000456593
0.000512332
0.000522503
0.000497974
0.000518994
0.000456757
0.000512514
0.000524363
0.00049983
0.000520881
0.000458508
0.000514405
0.000524639
0.000500102
0.00052116
0.000458762
0.000514686
0.000529859
0.00050541
0.000526435
0.000463948
0.000520105
0.00052947
0.000505277
0.000526456
0.000464146
0.000518465
0.000524341
0.000500066
0.000521277
0.000459056
0.000513141
0.000524068
0.000499797
0.000521001
0.000458804
0.000512863
0.000522211
0.000497944
0.000519118
0.000457056
0.000510978
0.000522035
0.000497771
0.000518938
0.000456893
0.000510797
0.000521232
0.000496976
0.000518121
0.000456146
0.000509982
0.000521143
0.000496888
0.00051803
0.000456063
0.000509889
0.000520801
0.000496551
0.000517681
0.000455745
0.000509541
0.000520766
0.000496516
0.000517645
0.000455712
0.000509504
0.000520671
0.000496422
0.000517548
0.000455624
0.000509408
0.000520671
0.000496422
0.000517548
0.000455624
0.000509408
0.000520766
0.000496516
0.000517645
0.000455712
0.000509504
0.000520801
0.000496551
0.000517681
0.000455745
0.000509541
0.000521143
0.000496888
0.00051803
0.000456063
0.000509889
0.000521232
0.000496976
0.000518121
0.000456146
0.000509982
0.000522035
0.000497771
0.000518938
0.000456893
0.000510797
0.000522211
0.000497944
0.000519118
0.000457056
0.000510978
0.000524068
0.000499797
0.000521001
0.000458804
0.000512863
0.000524341
0.000500066
0.000521277
0.000459056
0.000513141
0.00052947
0.000505277
0.000526456
0.000464146
0.000518465
0.000529103
0.000505158
0.000526487
0.000464283
0.000516889
0.000524064
0.000500042
0.000521402
0.000459287
0.000511658
0.000523793
0.000499775
0.000521129
0.000459038
0.000511383
0.000521939
0.000497927
0.000519249
0.000457293
0.000509504
0.000521764
0.000497754
0.00051907
0.000457131
0.000509324
0.000520962
0.00049696
0.000518254
0.000456383
0.000508509
0.000520873
0.000496872
0.000518162
0.0004563
0.000508417
0.000520531
0.000496534
0.000517814
0.000455982
0.000508069
0.000520495
0.000496499
0.000517777
0.000455949
0.000508032
0.0005204
0.000496406
0.00051768
0.000455861
0.000507936
0.0005204
0.000496406
0.00051768
0.000455861
0.000507936
0.000520495
0.000496499
0.000517777
0.000455949
0.000508032
0.000520531
0.000496534
0.000517814
0.000455982
0.000508069
0.000520873
0.000496872
0.000518162
0.0004563
0.000508417
0.000520962
0.00049696
0.000518254
0.000456383
0.000508509
0.000521764
0.000497754
0.00051907
0.000457131
0.000509324
0.000521939
0.000497927
0.000519249
0.000457293
0.000509504
0.000523793
0.000499775
0.000521129
0.000459038
0.000511383
0.000524064
0.000500042
0.000521402
0.000459287
0.000511658
0.000529103
0.000505158
0.000526487
0.000464283
0.000516889
0.000528753
0.000505049
0.000526524
0.000464356
0.000515307
0.000523802
0.000500025
0.000521531
0.000459453
0.000510166
0.000523534
0.000499761
0.000521261
0.000459206
0.000509894
0.000521684
0.000497917
0.000519385
0.000457465
0.000508022
0.00052151
0.000497745
0.000519208
0.000457304
0.000507843
0.000520707
0.000496951
0.000518391
0.000456556
0.000507029
0.000520618
0.000496863
0.0005183
0.000456474
0.000506937
0.000520276
0.000496525
0.000517951
0.000456155
0.000506589
0.000520241
0.00049649
0.000517915
0.000456122
0.000506552
0.000520146
0.000496397
0.000517818
0.000456034
0.000506456
0.000520146
0.000496397
0.000517818
0.000456034
0.000506456
0.000520241
0.00049649
0.000517915
0.000456122
0.000506552
0.000520276
0.000496525
0.000517951
0.000456155
0.000506589
0.000520618
0.000496863
0.0005183
0.000456474
0.000506937
0.000520707
0.000496951
0.000518391
0.000456556
0.000507029
0.00052151
0.000497745
0.000519208
0.000457304
0.000507843
0.000521684
0.000497917
0.000519385
0.000457465
0.000508022
0.000523534
0.000499761
0.000521261
0.000459206
0.000509894
0.000523802
0.000500025
0.000521531
0.000459453
0.000510166
0.000528753
0.000505049
0.000526524
0.000464356
0.000515307
0.000528421
0.000504949
0.000526568
0.000464365
0.000513731
0.000523556
0.000500015
0.000521666
0.000459553
0.000508678
0.00052329
0.000499754
0.000521398
0.000459309
0.000508409
0.000521444
0.000497914
0.000519527
0.000457572
0.000506543
0.000521271
0.000497743
0.000519351
0.000457412
0.000506366
0.000520468
0.000496949
0.000518534
0.000456665
0.000505552
0.00052038
0.000496862
0.000518443
0.000456583
0.000505461
0.000520037
0.000496524
0.000518094
0.000456264
0.000505113
0.000520002
0.000496489
0.000518058
0.000456231
0.000505076
0.000519907
0.000496395
0.000517961
0.000456143
0.00050498
0.000519907
0.000496395
0.000517961
0.000456143
0.00050498
0.000520002
0.000496489
0.000518058
0.000456231
0.000505076
0.000520037
0.000496524
0.000518094
0.000456264
0.000505113
0.00052038
0.000496862
0.000518443
0.000456583
0.000505461
0.000520468
0.000496949
0.000518534
0.000456665
0.000505552
0.000521271
0.000497743
0.000519351
0.000457412
0.000506366
0.000521444
0.000497914
0.000519527
0.000457572
0.000506543
0.00052329
0.000499754
0.000521398
0.000459309
0.000508409
0.000523556
0.000500015
0.000521666
0.000459553
0.000508678
0.000528421
0.000504949
0.000526568
0.000464365
0.000513731
0.000528106
0.000504859
0.000526623
0.000464312
0.000512174
0.000523325
0.000500013
0.000521808
0.00045959
0.000507206
0.000523062
0.000499754
0.000521543
0.000459348
0.00050694
0.00052122
0.00049792
0.000519677
0.000457616
0.000505081
0.000521048
0.00049775
0.000519502
0.000457457
0.000504905
0.000520245
0.000496956
0.000518685
0.00045671
0.000504092
0.000520157
0.000496869
0.000518595
0.000456628
0.000504001
0.000519814
0.000496531
0.000518245
0.00045631
0.000503653
0.000519779
0.000496496
0.000518209
0.000456277
0.000503617
0.000519684
0.000496402
0.000518112
0.000456188
0.00050352
0.000519684
0.000496402
0.000518112
0.000456188
0.00050352
0.000519779
0.000496496
0.000518209
0.000456277
0.000503617
0.000519814
0.000496531
0.000518245
0.00045631
0.000503653
0.000520157
0.000496869
0.000518595
0.000456628
0.000504001
0.000520245
0.000496956
0.000518685
0.00045671
0.000504092
0.000521048
0.00049775
0.000519502
0.000457457
0.000504905
0.00052122
0.00049792
0.000519677
0.000457616
0.000505081
0.000523062
0.000499754
0.000521543
0.000459348
0.00050694
0.000523325
0.000500013
0.000521808
0.00045959
0.000507206
0.000528106
0.000504859
0.000526623
0.000464312
0.000512174
0.000527809
0.000504779
0.000526688
0.000464197
0.000510568
0.000523109
0.00050002
0.00052196
0.000459563
0.000505685
0.000522849
0.000499763
0.000521697
0.000459324
0.000505422
0.000521012
0.000497934
0.000519836
0.000457598
0.00050357
0.00052084
0.000497765
0.000519662
0.000457439
0.000503395
0.000520037
0.000496971
0.000518845
0.000456692
0.000502583
0.00051995
0.000496885
0.000518755
0.000456611
0.000502493
0.000519607
0.000496546
0.000518406
0.000456293
0.000502145
0.000519572
0.000496512
0.00051837
0.00045626
0.000502109
0.000519477
0.000496418
0.000518273
0.000456172
0.000502013
0.000519477
0.000496418
0.000518273
0.000456172
0.000502013
0.000519572
0.000496512
0.00051837
0.00045626
0.000502109
0.000519607
0.000496546
0.000518406
0.000456293
0.000502145
0.00051995
0.000496885
0.000518755
0.000456611
0.000502493
0.000520037
0.000496971
0.000518845
0.000456692
0.000502583
0.00052084
0.000497765
0.000519662
0.000457439
0.000503395
0.000521012
0.000497934
0.000519836
0.000457598
0.00050357
0.000522849
0.000499763
0.000521697
0.000459324
0.000505422
0.000523109
0.00050002
0.00052196
0.000459563
0.000505685
0.000527809
0.000504779
0.000526688
0.000464197
0.000510568
-1.66065e-05
1.60752e-05
3.01403e-06
7.3583e-07
2.61836e-07
1.82943e-07
1.6593e-07
1.62645e-07
1.61851e-07
1.61674e-07
1.61618e-07
1.61594e-07
1.61496e-07
1.61386e-07
1.60519e-07
1.59851e-07
1.53415e-07
1.50645e-07
1.11916e-07
1.07812e-07
-1.66895e-05
1.60417e-05
3.0345e-06
7.42412e-07
2.63476e-07
1.83342e-07
1.6601e-07
1.62651e-07
1.61837e-07
1.61654e-07
1.61597e-07
1.61572e-07
1.61471e-07
1.61359e-07
1.60478e-07
1.59803e-07
1.53295e-07
1.50518e-07
1.11616e-07
1.076e-07
-1.6685e-05
1.60335e-05
3.03212e-06
7.42122e-07
2.6343e-07
1.83339e-07
1.6601e-07
1.62651e-07
1.61836e-07
1.61654e-07
1.61597e-07
1.61572e-07
1.61471e-07
1.61359e-07
1.60477e-07
1.59802e-07
1.53293e-07
1.50516e-07
1.11613e-07
1.07598e-07
-1.66615e-05
1.59856e-05
3.01799e-06
7.40309e-07
2.63127e-07
1.83308e-07
1.66005e-07
1.6265e-07
1.61836e-07
1.61653e-07
1.61596e-07
1.61571e-07
1.6147e-07
1.61357e-07
1.60475e-07
1.59799e-07
1.53286e-07
1.50509e-07
1.11601e-07
1.07592e-07
-1.66582e-05
1.59799e-05
3.01607e-06
7.4001e-07
2.63064e-07
1.83298e-07
1.66003e-07
1.6265e-07
1.61836e-07
1.61653e-07
1.61596e-07
1.61571e-07
1.6147e-07
1.61357e-07
1.60475e-07
1.59799e-07
1.53286e-07
1.50509e-07
1.11601e-07
1.07591e-07
-1.66458e-05
1.59587e-05
3.00908e-06
7.38973e-07
2.62853e-07
1.83266e-07
1.65996e-07
1.62649e-07
1.61835e-07
1.61653e-07
1.61596e-07
1.6157e-07
1.6147e-07
1.61357e-07
1.60474e-07
1.59798e-07
1.53286e-07
1.50509e-07
1.11601e-07
1.07591e-07
-1.66442e-05
1.59559e-05
3.00814e-06
7.38823e-07
2.62821e-07
1.8326e-07
1.65995e-07
1.62649e-07
1.61835e-07
1.61653e-07
1.61596e-07
1.6157e-07
1.61469e-07
1.61357e-07
1.60474e-07
1.59798e-07
1.53286e-07
1.50509e-07
1.11601e-07
1.07591e-07
-1.66391e-05
1.5947e-05
3.00528e-06
7.38398e-07
2.62733e-07
1.83246e-07
1.65992e-07
1.62648e-07
1.61835e-07
1.61653e-07
1.61596e-07
1.6157e-07
1.61469e-07
1.61357e-07
1.60474e-07
1.59798e-07
1.53286e-07
1.50509e-07
1.11601e-07
1.07591e-07
-1.66385e-05
1.59459e-05
3.00492e-06
7.3834e-07
2.62721e-07
1.83244e-07
1.65991e-07
1.62648e-07
1.61835e-07
1.61653e-07
1.61596e-07
1.6157e-07
1.61469e-07
1.61357e-07
1.60474e-07
1.59798e-07
1.53286e-07
1.50509e-07
1.11601e-07
1.07591e-07
-1.66371e-05
1.59435e-05
3.00415e-06
7.38227e-07
2.62698e-07
1.8324e-07
1.65991e-07
1.62648e-07
1.61835e-07
1.61653e-07
1.61596e-07
1.6157e-07
1.61469e-07
1.61357e-07
1.60474e-07
1.59798e-07
1.53286e-07
1.50509e-07
1.11601e-07
1.07591e-07
-1.66371e-05
1.59435e-05
3.00415e-06
7.38227e-07
2.62698e-07
1.8324e-07
1.65991e-07
1.62648e-07
1.61835e-07
1.61653e-07
1.61596e-07
1.6157e-07
1.61469e-07
1.61357e-07
1.60474e-07
1.59798e-07
1.53286e-07
1.50509e-07
1.11601e-07
1.07591e-07
-1.66385e-05
1.59459e-05
3.00492e-06
7.3834e-07
2.62721e-07
1.83244e-07
1.65991e-07
1.62648e-07
1.61835e-07
1.61653e-07
1.61596e-07
1.6157e-07
1.61469e-07
1.61357e-07
1.60474e-07
1.59798e-07
1.53286e-07
1.50509e-07
1.11601e-07
1.07591e-07
-1.66391e-05
1.5947e-05
3.00528e-06
7.38398e-07
2.62733e-07
1.83246e-07
1.65992e-07
1.62648e-07
1.61835e-07
1.61653e-07
1.61596e-07
1.6157e-07
1.61469e-07
1.61357e-07
1.60474e-07
1.59798e-07
1.53286e-07
1.50509e-07
1.11601e-07
1.07591e-07
-1.66442e-05
1.59559e-05
3.00814e-06
7.38823e-07
2.62821e-07
1.8326e-07
1.65995e-07
1.62649e-07
1.61835e-07
1.61653e-07
1.61596e-07
1.6157e-07
1.61469e-07
1.61357e-07
1.60474e-07
1.59798e-07
1.53286e-07
1.50509e-07
1.11601e-07
1.07591e-07
-1.66458e-05
1.59587e-05
3.00908e-06
7.38973e-07
2.62853e-07
1.83266e-07
1.65996e-07
1.62649e-07
1.61835e-07
1.61653e-07
1.61596e-07
1.6157e-07
1.6147e-07
1.61357e-07
1.60474e-07
1.59798e-07
1.53286e-07
1.50509e-07
1.11601e-07
1.07591e-07
-1.66582e-05
1.59799e-05
3.01607e-06
7.4001e-07
2.63064e-07
1.83298e-07
1.66003e-07
1.6265e-07
1.61836e-07
1.61653e-07
1.61596e-07
1.61571e-07
1.6147e-07
1.61357e-07
1.60475e-07
1.59799e-07
1.53286e-07
1.50509e-07
1.11601e-07
1.07591e-07
-1.66615e-05
1.59856e-05
3.01799e-06
7.40309e-07
2.63127e-07
1.83308e-07
1.66005e-07
1.6265e-07
1.61836e-07
1.61653e-07
1.61596e-07
1.61571e-07
1.6147e-07
1.61357e-07
1.60475e-07
1.59799e-07
1.53286e-07
1.50509e-07
1.11601e-07
1.07592e-07
-1.6685e-05
1.60335e-05
3.03212e-06
7.42122e-07
2.6343e-07
1.83339e-07
1.6601e-07
1.62651e-07
1.61836e-07
1.61654e-07
1.61597e-07
1.61572e-07
1.61471e-07
1.61359e-07
1.60477e-07
1.59802e-07
1.53293e-07
1.50516e-07
1.11613e-07
1.07598e-07
-1.66895e-05
1.60417e-05
3.0345e-06
7.42412e-07
2.63476e-07
1.83342e-07
1.6601e-07
1.62651e-07
1.61837e-07
1.61654e-07
1.61597e-07
1.61572e-07
1.61471e-07
1.61359e-07
1.60478e-07
1.59803e-07
1.53295e-07
1.50518e-07
1.11616e-07
1.076e-07
-1.66065e-05
1.60752e-05
3.01403e-06
7.3583e-07
2.61836e-07
1.82943e-07
1.6593e-07
1.62645e-07
1.61851e-07
1.61674e-07
1.61618e-07
1.61594e-07
1.61496e-07
1.61386e-07
1.60519e-07
1.59851e-07
1.53415e-07
1.50645e-07
1.11916e-07
1.07812e-07
-1.62261e-05
1.62491e-05
3.04141e-06
7.41643e-07
2.62904e-07
1.83182e-07
1.65968e-07
1.6273e-07
1.61943e-07
1.61763e-07
1.61707e-07
1.61682e-07
1.61582e-07
1.6147e-07
1.60564e-07
1.59834e-07
1.53333e-07
1.50537e-07
1.11321e-07
1.07188e-07
-1.63038e-05
1.62156e-05
3.0621e-06
7.48297e-07
2.64564e-07
1.83585e-07
1.6605e-07
1.62734e-07
1.61928e-07
1.61743e-07
1.61685e-07
1.6166e-07
1.61558e-07
1.61444e-07
1.60522e-07
1.59784e-07
1.53212e-07
1.50409e-07
1.11017e-07
1.06972e-07
-1.62992e-05
1.62073e-05
3.0597e-06
7.48005e-07
2.64517e-07
1.83583e-07
1.6605e-07
1.62734e-07
1.61928e-07
1.61743e-07
1.61685e-07
1.6166e-07
1.61557e-07
1.61444e-07
1.60521e-07
1.59783e-07
1.5321e-07
1.50408e-07
1.11014e-07
1.0697e-07
-1.62747e-05
1.61589e-05