/*--------------------------------*- C++ -*----------------------------------*\
  =========                 |
  \\      /  F ield         | OpenFOAM: The Open Source CFD Toolbox
   \\    /   O peration     | Website:  https://openfoam.org
    \\  /    A nd           | Version:  8
     \\/     M anipulation  |
\*---------------------------------------------------------------------------*/
FoamFile
{
    version     2.0;
    format      ascii;
    class       volScalarField;
    location    "4.7";
    object      H2;
}
// * * * * * * * * * * * * * * * * * * * * * * * * * * * * * * * * * * * * * //

dimensions      [0 1 -1 0 0 0 0];

internalField   nonuniform List<scalar> 
180000
(
1.16597e-24
2.51983e-20
4.56648e-16
6.84348e-12
8.57483e-08
1.3595e-24
2.86049e-20
5.08871e-16
7.51364e-12
9.29187e-08
1.36187e-24
2.86441e-20
5.09406e-16
7.51929e-12
9.29606e-08
1.36739e-24
2.87373e-20
5.10696e-16
7.5335e-12
9.30717e-08
1.3661e-24
2.87128e-20
5.10274e-16
7.5273e-12
9.29924e-08
1.36223e-24
2.86404e-20
5.09061e-16
7.51004e-12
9.27792e-08
1.36148e-24
2.86261e-20
5.08816e-16
7.50646e-12
9.27336e-08
1.35967e-24
2.85922e-20
5.08245e-16
7.49831e-12
9.26324e-08
1.35938e-24
2.85866e-20
5.0815e-16
7.4969e-12
9.26141e-08
1.3589e-24
2.85775e-20
5.07995e-16
7.49468e-12
9.25861e-08
1.3589e-24
2.85775e-20
5.07995e-16
7.49468e-12
9.25861e-08
1.35938e-24
2.85866e-20
5.0815e-16
7.4969e-12
9.26141e-08
1.35967e-24
2.85922e-20
5.08245e-16
7.49831e-12
9.26324e-08
1.36148e-24
2.86261e-20
5.08816e-16
7.50646e-12
9.27336e-08
1.36223e-24
2.86404e-20
5.09061e-16
7.51004e-12
9.27792e-08
1.3661e-24
2.87128e-20
5.10274e-16
7.5273e-12
9.29924e-08
1.36739e-24
2.87373e-20
5.10696e-16
7.5335e-12
9.30717e-08
1.36187e-24
2.86441e-20
5.09406e-16
7.51929e-12
9.29606e-08
1.3595e-24
2.86049e-20
5.08871e-16
7.51364e-12
9.29187e-08
1.16597e-24
2.51983e-20
4.56648e-16
6.84348e-12
8.57483e-08
1.16596e-24
2.51976e-20
4.56617e-16
6.84607e-12
9.08157e-08
1.35949e-24
2.8604e-20
5.08837e-16
7.51627e-12
9.81834e-08
1.36185e-24
2.86432e-20
5.09373e-16
7.52192e-12
9.82226e-08
1.36738e-24
2.87364e-20
5.10663e-16
7.53611e-12
9.83226e-08
1.36609e-24
2.87119e-20
5.10241e-16
7.52991e-12
9.82379e-08
1.36222e-24
2.86396e-20
5.09028e-16
7.51263e-12
9.80098e-08
1.36147e-24
2.86253e-20
5.08783e-16
7.50906e-12
9.79611e-08
1.35966e-24
2.85913e-20
5.08212e-16
7.5009e-12
9.78528e-08
1.35937e-24
2.85858e-20
5.08116e-16
7.49949e-12
9.78332e-08
1.35889e-24
2.85766e-20
5.07962e-16
7.49726e-12
9.78032e-08
1.35889e-24
2.85766e-20
5.07962e-16
7.49726e-12
9.78032e-08
1.35937e-24
2.85858e-20
5.08116e-16
7.49949e-12
9.78332e-08
1.35966e-24
2.85913e-20
5.08212e-16
7.5009e-12
9.78528e-08
1.36147e-24
2.86253e-20
5.08783e-16
7.50906e-12
9.79611e-08
1.36222e-24
2.86396e-20
5.09028e-16
7.51263e-12
9.80098e-08
1.36609e-24
2.87119e-20
5.10241e-16
7.52991e-12
9.82379e-08
1.36738e-24
2.87364e-20
5.10663e-16
7.53611e-12
9.83226e-08
1.36185e-24
2.86432e-20
5.09373e-16
7.52192e-12
9.82226e-08
1.35949e-24
2.8604e-20
5.08837e-16
7.51627e-12
9.81834e-08
1.16596e-24
2.51976e-20
4.56617e-16
6.84607e-12
9.08157e-08
1.16595e-24
2.51962e-20
4.56573e-16
6.86101e-12
1.12724e-07
1.35948e-24
2.86023e-20
5.08787e-16
7.53143e-12
1.20648e-07
1.36184e-24
2.86416e-20
5.09323e-16
7.53707e-12
1.20679e-07
1.36737e-24
2.87347e-20
5.10613e-16
7.55121e-12
1.20749e-07
1.36608e-24
2.87102e-20
5.10191e-16
7.54499e-12
1.20648e-07
1.36221e-24
2.86379e-20
5.08979e-16
7.52767e-12
1.20377e-07
1.36146e-24
2.86236e-20
5.08734e-16
7.52408e-12
1.20319e-07
1.35965e-24
2.85896e-20
5.08163e-16
7.5159e-12
1.2019e-07
1.35936e-24
2.85841e-20
5.08067e-16
7.51448e-12
1.20166e-07
1.35888e-24
2.8575e-20
5.07913e-16
7.51225e-12
1.2013e-07
1.35888e-24
2.8575e-20
5.07913e-16
7.51225e-12
1.2013e-07
1.35936e-24
2.85841e-20
5.08067e-16
7.51448e-12
1.20166e-07
1.35965e-24
2.85896e-20
5.08163e-16
7.5159e-12
1.2019e-07
1.36146e-24
2.86236e-20
5.08734e-16
7.52408e-12
1.20319e-07
1.36221e-24
2.86379e-20
5.08979e-16
7.52767e-12
1.20377e-07
1.36608e-24
2.87102e-20
5.10191e-16
7.54499e-12
1.20648e-07
1.36737e-24
2.87347e-20
5.10613e-16
7.55121e-12
1.20749e-07
1.36184e-24
2.86416e-20
5.09323e-16
7.53707e-12
1.20679e-07
1.35948e-24
2.86023e-20
5.08787e-16
7.53143e-12
1.20648e-07
1.16595e-24
2.51962e-20
4.56573e-16
6.86101e-12
1.12724e-07
1.16594e-24
2.51937e-20
4.56534e-16
6.9034e-12
1.6099e-07
1.35946e-24
2.85995e-20
5.0874e-16
7.57422e-12
1.69649e-07
1.36183e-24
2.86387e-20
5.09276e-16
7.57984e-12
1.69665e-07
1.36735e-24
2.87319e-20
5.10567e-16
7.59383e-12
1.69697e-07
1.36607e-24
2.87074e-20
5.10145e-16
7.58757e-12
1.69573e-07
1.3622e-24
2.8635e-20
5.08933e-16
7.57014e-12
1.69241e-07
1.36144e-24
2.86207e-20
5.08688e-16
7.56653e-12
1.6917e-07
1.35963e-24
2.85868e-20
5.08117e-16
7.55831e-12
1.69011e-07
1.35934e-24
2.85812e-20
5.08021e-16
7.55688e-12
1.68982e-07
1.35886e-24
2.85721e-20
5.07867e-16
7.55463e-12
1.68937e-07
1.35886e-24
2.85721e-20
5.07867e-16
7.55463e-12
1.68937e-07
1.35934e-24
2.85812e-20
5.08021e-16
7.55688e-12
1.68982e-07
1.35963e-24
2.85868e-20
5.08117e-16
7.55831e-12
1.69011e-07
1.36144e-24
2.86207e-20
5.08688e-16
7.56653e-12
1.6917e-07
1.3622e-24
2.8635e-20
5.08933e-16
7.57014e-12
1.69241e-07
1.36607e-24
2.87074e-20
5.10145e-16
7.58757e-12
1.69573e-07
1.36735e-24
2.87319e-20
5.10567e-16
7.59383e-12
1.69697e-07
1.36183e-24
2.86387e-20
5.09276e-16
7.57984e-12
1.69665e-07
1.35946e-24
2.85995e-20
5.0874e-16
7.57422e-12
1.69649e-07
1.16594e-24
2.51937e-20
4.56534e-16
6.9034e-12
1.6099e-07
1.16592e-24
2.51901e-20
4.56527e-16
6.99033e-12
2.38638e-07
1.35945e-24
2.85954e-20
5.08722e-16
7.66152e-12
2.47955e-07
1.36182e-24
2.86347e-20
5.09259e-16
7.66708e-12
2.4795e-07
1.36734e-24
2.87278e-20
5.10549e-16
7.6808e-12
2.47927e-07
1.36605e-24
2.87033e-20
5.10128e-16
7.67448e-12
2.47775e-07
1.36218e-24
2.8631e-20
5.08916e-16
7.65686e-12
2.47372e-07
1.36143e-24
2.86167e-20
5.08671e-16
7.65322e-12
2.47284e-07
1.35962e-24
2.85828e-20
5.081e-16
7.6449e-12
2.47089e-07
1.35933e-24
2.85772e-20
5.08004e-16
7.64345e-12
2.47053e-07
1.35885e-24
2.85681e-20
5.0785e-16
7.64118e-12
2.46998e-07
1.35885e-24
2.85681e-20
5.0785e-16
7.64118e-12
2.46998e-07
1.35933e-24
2.85772e-20
5.08004e-16
7.64345e-12
2.47053e-07
1.35962e-24
2.85828e-20
5.081e-16
7.6449e-12
2.47089e-07
1.36143e-24
2.86167e-20
5.08671e-16
7.65322e-12
2.47284e-07
1.36218e-24
2.8631e-20
5.08916e-16
7.65686e-12
2.47372e-07
1.36605e-24
2.87033e-20
5.10128e-16
7.67448e-12
2.47775e-07
1.36734e-24
2.87278e-20
5.10549e-16
7.6808e-12
2.47927e-07
1.36182e-24
2.86347e-20
5.09259e-16
7.66708e-12
2.4795e-07
1.35945e-24
2.85954e-20
5.08722e-16
7.66152e-12
2.47955e-07
1.16592e-24
2.51901e-20
4.56527e-16
6.99033e-12
2.38638e-07
1.16591e-24
2.51857e-20
4.5659e-16
7.13951e-12
3.46669e-07
1.35942e-24
2.85903e-20
5.08771e-16
7.81077e-12
3.56429e-07
1.3618e-24
2.86297e-20
5.09309e-16
7.81624e-12
3.56393e-07
1.36732e-24
2.87228e-20
5.10599e-16
7.8295e-12
3.56267e-07
1.36604e-24
2.86983e-20
5.10177e-16
7.82308e-12
3.56082e-07
1.36216e-24
2.8626e-20
5.08965e-16
7.80516e-12
3.55587e-07
1.36141e-24
2.86117e-20
5.0872e-16
7.80145e-12
3.55478e-07
1.3596e-24
2.85778e-20
5.0815e-16
7.79299e-12
3.55239e-07
1.35931e-24
2.85722e-20
5.08054e-16
7.79152e-12
3.55193e-07
1.35883e-24
2.85631e-20
5.079e-16
7.7892e-12
3.55125e-07
1.35883e-24
2.85631e-20
5.079e-16
7.7892e-12
3.55125e-07
1.35931e-24
2.85722e-20
5.08054e-16
7.79152e-12
3.55193e-07
1.3596e-24
2.85778e-20
5.0815e-16
7.79299e-12
3.55239e-07
1.36141e-24
2.86117e-20
5.0872e-16
7.80145e-12
3.55478e-07
1.36216e-24
2.8626e-20
5.08965e-16
7.80516e-12
3.55587e-07
1.36604e-24
2.86983e-20
5.10177e-16
7.82308e-12
3.56082e-07
1.36732e-24
2.87228e-20
5.10599e-16
7.8295e-12
3.56267e-07
1.3618e-24
2.86297e-20
5.09309e-16
7.81624e-12
3.56393e-07
1.35942e-24
2.85903e-20
5.08771e-16
7.81077e-12
3.56429e-07
1.16591e-24
2.51857e-20
4.5659e-16
7.13951e-12
3.46669e-07
1.16589e-24
2.51806e-20
4.56775e-16
7.36942e-12
4.86392e-07
1.3594e-24
2.85844e-20
5.08938e-16
8.04015e-12
4.9628e-07
1.36178e-24
2.86238e-20
5.09476e-16
8.04546e-12
4.96199e-07
1.3673e-24
2.87169e-20
5.10764e-16
8.05799e-12
4.95895e-07
1.36602e-24
2.86924e-20
5.10343e-16
8.05141e-12
4.95666e-07
1.36214e-24
2.86202e-20
5.0913e-16
8.03304e-12
4.95047e-07
1.36139e-24
2.86059e-20
5.08886e-16
8.02924e-12
4.94913e-07
1.35958e-24
2.8572e-20
5.08315e-16
8.02057e-12
4.94614e-07
1.35929e-24
2.85664e-20
5.08219e-16
8.01906e-12
4.94557e-07
1.35881e-24
2.85573e-20
5.08065e-16
8.01668e-12
4.94472e-07
1.35881e-24
2.85573e-20
5.08065e-16
8.01668e-12
4.94472e-07
1.35929e-24
2.85664e-20
5.08219e-16
8.01906e-12
4.94557e-07
1.35958e-24
2.8572e-20
5.08315e-16
8.02057e-12
4.94614e-07
1.36139e-24
2.86059e-20
5.08886e-16
8.02924e-12
4.94913e-07
1.36214e-24
2.86202e-20
5.0913e-16
8.03304e-12
4.95047e-07
1.36602e-24
2.86924e-20
5.10343e-16
8.05141e-12
4.95666e-07
1.3673e-24
2.87169e-20
5.10764e-16
8.05799e-12
4.95895e-07
1.36178e-24
2.86238e-20
5.09476e-16
8.04546e-12
4.96199e-07
1.3594e-24
2.85844e-20
5.08938e-16
8.04015e-12
4.9628e-07
1.16589e-24
2.51806e-20
4.56775e-16
7.36942e-12
4.86392e-07
1.16587e-24
2.51748e-20
4.57145e-16
7.69939e-12
6.59195e-07
1.35937e-24
2.85777e-20
5.09285e-16
8.36854e-12
6.68766e-07
1.36175e-24
2.86172e-20
5.09824e-16
8.37362e-12
6.68622e-07
1.36727e-24
2.87103e-20
5.11109e-16
8.38504e-12
6.68035e-07
1.36599e-24
2.86859e-20
5.10687e-16
8.37825e-12
6.67752e-07
1.36212e-24
2.86136e-20
5.09474e-16
8.35923e-12
6.66966e-07
1.36136e-24
2.85993e-20
5.09229e-16
8.35531e-12
6.668e-07
1.35956e-24
2.85654e-20
5.08658e-16
8.34633e-12
6.66422e-07
1.35927e-24
2.85599e-20
5.08562e-16
8.34477e-12
6.66352e-07
1.35878e-24
2.85508e-20
5.08408e-16
8.3423e-12
6.66243e-07
1.35878e-24
2.85508e-20
5.08408e-16
8.3423e-12
6.66243e-07
1.35927e-24
2.85599e-20
5.08562e-16
8.34477e-12
6.66352e-07
1.35956e-24
2.85654e-20
5.08658e-16
8.34633e-12
6.66422e-07
1.36136e-24
2.85993e-20
5.09229e-16
8.35531e-12
6.668e-07
1.36212e-24
2.86136e-20
5.09474e-16
8.35923e-12
6.66966e-07
1.36599e-24
2.86859e-20
5.10687e-16
8.37825e-12
6.67752e-07
1.36727e-24
2.87103e-20
5.11109e-16
8.38504e-12
6.68035e-07
1.36175e-24
2.86172e-20
5.09823e-16
8.37362e-12
6.68622e-07
1.35937e-24
2.85777e-20
5.09285e-16
8.36854e-12
6.68766e-07
1.16587e-24
2.51748e-20
4.57145e-16
7.69939e-12
6.59195e-07
1.16584e-24
2.51687e-20
4.57777e-16
8.14927e-12
8.65878e-07
1.35933e-24
2.85705e-20
5.09886e-16
8.81525e-12
8.74514e-07
1.36172e-24
2.86101e-20
5.10425e-16
8.82001e-12
8.74285e-07
1.36724e-24
2.87032e-20
5.11707e-16
8.82982e-12
8.73286e-07
1.36596e-24
2.86788e-20
5.11284e-16
8.82275e-12
8.72935e-07
1.36209e-24
2.86066e-20
5.1007e-16
8.80284e-12
8.71932e-07
1.36134e-24
2.85923e-20
5.09824e-16
8.79876e-12
8.71725e-07
1.35953e-24
2.85584e-20
5.09253e-16
8.78936e-12
8.71245e-07
1.35924e-24
2.85528e-20
5.09157e-16
8.78773e-12
8.71157e-07
1.35875e-24
2.85437e-20
5.09002e-16
8.78514e-12
8.71019e-07
1.35875e-24
2.85437e-20
5.09002e-16
8.78514e-12
8.71019e-07
1.35924e-24
2.85528e-20
5.09157e-16
8.78773e-12
8.71157e-07
1.35953e-24
2.85584e-20
5.09253e-16
8.78936e-12
8.71245e-07
1.36134e-24
2.85923e-20
5.09824e-16
8.79876e-12
8.71725e-07
1.36209e-24
2.86066e-20
5.1007e-16
8.80284e-12
8.71932e-07
1.36596e-24
2.86788e-20
5.11284e-16
8.82275e-12
8.72935e-07
1.36724e-24
2.87032e-20
5.11707e-16
8.82982e-12
8.73286e-07
1.36172e-24
2.86101e-20
5.10425e-16
8.82001e-12
8.74285e-07
1.35933e-24
2.85705e-20
5.09886e-16
8.81525e-12
8.74514e-07
1.16584e-24
2.51687e-20
4.57777e-16
8.14927e-12
8.65878e-07
1.16581e-24
2.51624e-20
4.58759e-16
8.73857e-12
1.10589e-06
1.3593e-24
2.85631e-20
5.10828e-16
9.39917e-12
1.11277e-06
1.36169e-24
2.86027e-20
5.11368e-16
9.4035e-12
1.11244e-06
1.36721e-24
2.86958e-20
5.12643e-16
9.41107e-12
1.11087e-06
1.36593e-24
2.86714e-20
5.12219e-16
9.40363e-12
1.11043e-06
1.36206e-24
2.85992e-20
5.11002e-16
9.38253e-12
1.10915e-06
1.3613e-24
2.85849e-20
5.10756e-16
9.37823e-12
1.1089e-06
1.35949e-24
2.8551e-20
5.10183e-16
9.36827e-12
1.10829e-06
1.3592e-24
2.85455e-20
5.10087e-16
9.36655e-12
1.10818e-06
1.35872e-24
2.85364e-20
5.09932e-16
9.36379e-12
1.108e-06
1.35872e-24
2.85364e-20
5.09932e-16
9.36379e-12
1.108e-06
1.3592e-24
2.85455e-20
5.10087e-16
9.36655e-12
1.10818e-06
1.35949e-24
2.8551e-20
5.10183e-16
9.36827e-12
1.10829e-06
1.3613e-24
2.85849e-20
5.10756e-16
9.37823e-12
1.1089e-06
1.36206e-24
2.85992e-20
5.11002e-16
9.38253e-12
1.10915e-06
1.36593e-24
2.86714e-20
5.12219e-16
9.40363e-12
1.11043e-06
1.36721e-24
2.86958e-20
5.12643e-16
9.41107e-12
1.11087e-06
1.36169e-24
2.86027e-20
5.11368e-16
9.4035e-12
1.11244e-06
1.3593e-24
2.85631e-20
5.10828e-16
9.39917e-12
1.11277e-06
1.16581e-24
2.51624e-20
4.58759e-16
8.73857e-12
1.10589e-06
1.16578e-24
2.51561e-20
4.60091e-16
9.32596e-12
1.1031e-06
1.35925e-24
2.85555e-20
5.12111e-16
9.98113e-12
1.11e-06
1.36165e-24
2.85953e-20
5.1265e-16
9.98503e-12
1.10967e-06
1.36717e-24
2.86884e-20
5.13916e-16
9.99039e-12
1.10813e-06
1.36589e-24
2.86639e-20
5.13492e-16
9.98258e-12
1.1077e-06
1.36202e-24
2.85918e-20
5.12271e-16
9.9603e-12
1.10643e-06
1.36126e-24
2.85775e-20
5.12024e-16
9.95579e-12
1.10618e-06
1.35946e-24
2.85437e-20
5.1145e-16
9.94528e-12
1.10557e-06
1.35917e-24
2.85381e-20
5.11353e-16
9.94346e-12
1.10547e-06
1.35868e-24
2.8529e-20
5.11198e-16
9.94055e-12
1.10529e-06
1.35868e-24
2.8529e-20
5.11198e-16
9.94055e-12
1.10529e-06
1.35917e-24
2.85381e-20
5.11353e-16
9.94346e-12
1.10547e-06
1.35946e-24
2.85437e-20
5.1145e-16
9.94528e-12
1.10557e-06
1.36126e-24
2.85775e-20
5.12024e-16
9.95579e-12
1.10618e-06
1.36202e-24
2.85918e-20
5.12271e-16
9.9603e-12
1.10643e-06
1.36589e-24
2.86639e-20
5.13492e-16
9.98258e-12
1.1077e-06
1.36717e-24
2.86884e-20
5.13916e-16
9.99039e-12
1.10813e-06
1.36165e-24
2.85953e-20
5.1265e-16
9.98503e-12
1.10967e-06
1.35925e-24
2.85555e-20
5.12111e-16
9.98113e-12
1.11e-06
1.16578e-24
2.51561e-20
4.60091e-16
9.32596e-12
1.1031e-06
1.16574e-24
2.51503e-20
4.61772e-16
9.91142e-12
1.10039e-06
1.3592e-24
2.85482e-20
5.13733e-16
1.05611e-11
1.10732e-06
1.36161e-24
2.85881e-20
5.14272e-16
1.05646e-11
1.10699e-06
1.36713e-24
2.86811e-20
5.15527e-16
1.05678e-11
1.10547e-06
1.36585e-24
2.86567e-20
5.15101e-16
1.05596e-11
1.10504e-06
1.36198e-24
2.85846e-20
5.13875e-16
1.05362e-11
1.10379e-06
1.36122e-24
2.85703e-20
5.13628e-16
1.05314e-11
1.10354e-06
1.35941e-24
2.85365e-20
5.13051e-16
1.05204e-11
1.10294e-06
1.35912e-24
2.85309e-20
5.12954e-16
1.05185e-11
1.10283e-06
1.35864e-24
2.85218e-20
5.12798e-16
1.05154e-11
1.10266e-06
1.35864e-24
2.85218e-20
5.12798e-16
1.05154e-11
1.10266e-06
1.35912e-24
2.85309e-20
5.12954e-16
1.05185e-11
1.10283e-06
1.35941e-24
2.85365e-20
5.13051e-16
1.05204e-11
1.10294e-06
1.36122e-24
2.85703e-20
5.13628e-16
1.05314e-11
1.10354e-06
1.36198e-24
2.85846e-20
5.13875e-16
1.05362e-11
1.10379e-06
1.36585e-24
2.86567e-20
5.15101e-16
1.05596e-11
1.10504e-06
1.36713e-24
2.86811e-20
5.15527e-16
1.05678e-11
1.10547e-06
1.36161e-24
2.85881e-20
5.14272e-16
1.05646e-11
1.10699e-06
1.3592e-24
2.85482e-20
5.13733e-16
1.05611e-11
1.10732e-06
1.16574e-24
2.51503e-20
4.61772e-16
9.91142e-12
1.10039e-06
1.1657e-24
2.5145e-20
4.638e-16
1.04949e-11
1.09776e-06
1.35915e-24
2.85413e-20
5.15694e-16
1.11391e-11
1.10471e-06
1.36156e-24
2.85813e-20
5.16232e-16
1.11422e-11
1.10439e-06
1.36708e-24
2.86743e-20
5.17473e-16
1.11431e-11
1.10289e-06
1.3658e-24
2.86499e-20
5.17046e-16
1.11346e-11
1.10247e-06
1.36193e-24
2.85778e-20
5.15814e-16
1.111e-11
1.10122e-06
1.36118e-24
2.85635e-20
5.15566e-16
1.11051e-11
1.10098e-06
1.35937e-24
2.85297e-20
5.14986e-16
1.10935e-11
1.10038e-06
1.35908e-24
2.85242e-20
5.14889e-16
1.10915e-11
1.10028e-06
1.3586e-24
2.85151e-20
5.14732e-16
1.10883e-11
1.10011e-06
1.3586e-24
2.85151e-20
5.14732e-16
1.10883e-11
1.10011e-06
1.35908e-24
2.85242e-20
5.14889e-16
1.10915e-11
1.10028e-06
1.35937e-24
2.85297e-20
5.14986e-16
1.10935e-11
1.10038e-06
1.36118e-24
2.85635e-20
5.15566e-16
1.11051e-11
1.10098e-06
1.36193e-24
2.85778e-20
5.15814e-16
1.111e-11
1.10122e-06
1.3658e-24
2.86499e-20
5.17046e-16
1.11346e-11
1.10247e-06
1.36708e-24
2.86743e-20
5.17473e-16
1.11431e-11
1.10289e-06
1.36156e-24
2.85813e-20
5.16232e-16
1.11422e-11
1.10439e-06
1.35915e-24
2.85413e-20
5.15694e-16
1.11391e-11
1.10471e-06
1.1657e-24
2.5145e-20
4.638e-16
1.04949e-11
1.09776e-06
1.16566e-24
2.51405e-20
4.66176e-16
1.10762e-11
1.0952e-06
1.35909e-24
2.85351e-20
5.17992e-16
1.17149e-11
1.10217e-06
1.36151e-24
2.85752e-20
5.18529e-16
1.17176e-11
1.10185e-06
1.36704e-24
2.86682e-20
5.19755e-16
1.17164e-11
1.10038e-06
1.36575e-24
2.86437e-20
5.19326e-16
1.17075e-11
1.09996e-06
1.36188e-24
2.85717e-20
5.18087e-16
1.16818e-11
1.09873e-06
1.36113e-24
2.85574e-20
5.17837e-16
1.16767e-11
1.09848e-06
1.35932e-24
2.85236e-20
5.17255e-16
1.16645e-11
1.0979e-06
1.35903e-24
2.85181e-20
5.17157e-16
1.16624e-11
1.09779e-06
1.35855e-24
2.8509e-20
5.16999e-16
1.1659e-11
1.09762e-06
1.35855e-24
2.8509e-20
5.16999e-16
1.1659e-11
1.09762e-06
1.35903e-24
2.85181e-20
5.17157e-16
1.16624e-11
1.09779e-06
1.35932e-24
2.85236e-20
5.17255e-16
1.16645e-11
1.0979e-06
1.36113e-24
2.85574e-20
5.17837e-16
1.16767e-11
1.09848e-06
1.36188e-24
2.85717e-20
5.18087e-16
1.16818e-11
1.09873e-06
1.36575e-24
2.86437e-20
5.19326e-16
1.17075e-11
1.09996e-06
1.36704e-24
2.86682e-20
5.19755e-16
1.17164e-11
1.10038e-06
1.36151e-24
2.85752e-20
5.18529e-16
1.17176e-11
1.10185e-06
1.35909e-24
2.85351e-20
5.17992e-16
1.17149e-11
1.10217e-06
1.16566e-24
2.51405e-20
4.66176e-16
1.10762e-11
1.0952e-06
1.16562e-24
2.51371e-20
4.68898e-16
1.16554e-11
1.09272e-06
1.35903e-24
2.85298e-20
5.20628e-16
1.22886e-11
1.0997e-06
1.36146e-24
2.857e-20
5.21163e-16
1.22908e-11
1.09939e-06
1.36698e-24
2.86629e-20
5.22372e-16
1.22875e-11
1.09793e-06
1.3657e-24
2.86385e-20
5.2194e-16
1.22783e-11
1.09751e-06
1.36183e-24
2.85665e-20
5.20693e-16
1.22514e-11
1.0963e-06
1.36108e-24
2.85522e-20
5.20442e-16
1.22461e-11
1.09605e-06
1.35927e-24
2.85184e-20
5.19855e-16
1.22334e-11
1.09547e-06
1.35898e-24
2.85129e-20
5.19757e-16
1.22312e-11
1.09537e-06
1.3585e-24
2.85038e-20
5.19597e-16
1.22277e-11
1.0952e-06
1.3585e-24
2.85038e-20
5.19597e-16
1.22277e-11
1.0952e-06
1.35898e-24
2.85129e-20
5.19757e-16
1.22312e-11
1.09537e-06
1.35927e-24
2.85184e-20
5.19855e-16
1.22334e-11
1.09547e-06
1.36108e-24
2.85522e-20
5.20442e-16
1.22461e-11
1.09605e-06
1.36183e-24
2.85665e-20
5.20693e-16
1.22514e-11
1.0963e-06
1.3657e-24
2.86385e-20
5.21939e-16
1.22783e-11
1.09751e-06
1.36698e-24
2.86629e-20
5.22371e-16
1.22875e-11
1.09793e-06
1.36146e-24
2.857e-20
5.21163e-16
1.22908e-11
1.09939e-06
1.35903e-24
2.85298e-20
5.20628e-16
1.22885e-11
1.0997e-06
1.16562e-24
2.51371e-20
4.68898e-16
1.16554e-11
1.09272e-06
1.16557e-24
2.5135e-20
4.71964e-16
1.22324e-11
1.09029e-06
1.35897e-24
2.85256e-20
5.23599e-16
1.28599e-11
1.09729e-06
1.36141e-24
2.85659e-20
5.24132e-16
1.28617e-11
1.09698e-06
1.36693e-24
2.86588e-20
5.25321e-16
1.28563e-11
1.09554e-06
1.36565e-24
2.86344e-20
5.24886e-16
1.28468e-11
1.09513e-06
1.36178e-24
2.85624e-20
5.2363e-16
1.28188e-11
1.09393e-06
1.36102e-24
2.85481e-20
5.23378e-16
1.28132e-11
1.09368e-06
1.35922e-24
2.85143e-20
5.22787e-16
1.28e-11
1.09311e-06
1.35893e-24
2.85088e-20
5.22687e-16
1.27978e-11
1.09301e-06
1.35844e-24
2.84997e-20
5.22527e-16
1.27941e-11
1.09284e-06
1.35844e-24
2.84997e-20
5.22527e-16
1.27941e-11
1.09284e-06
1.35893e-24
2.85088e-20
5.22687e-16
1.27978e-11
1.09301e-06
1.35922e-24
2.85143e-20
5.22787e-16
1.28e-11
1.09311e-06
1.36102e-24
2.85481e-20
5.23378e-16
1.28132e-11
1.09368e-06
1.36178e-24
2.85624e-20
5.2363e-16
1.28188e-11
1.09393e-06
1.36565e-24
2.86344e-20
5.24886e-16
1.28468e-11
1.09513e-06
1.36693e-24
2.86588e-20
5.25321e-16
1.28563e-11
1.09554e-06
1.36141e-24
2.85659e-20
5.24132e-16
1.28617e-11
1.09698e-06
1.35897e-24
2.85256e-20
5.23599e-16
1.28599e-11
1.09729e-06
1.16557e-24
2.5135e-20
4.71964e-16
1.22324e-11
1.09029e-06
1.16553e-24
2.51344e-20
4.75374e-16
1.28069e-11
1.08793e-06
1.35891e-24
2.85228e-20
5.26903e-16
1.34288e-11
1.09494e-06
1.36135e-24
2.85633e-20
5.27435e-16
1.34303e-11
1.09463e-06
1.36688e-24
2.8656e-20
5.28601e-16
1.34228e-11
1.09321e-06
1.36559e-24
2.86316e-20
5.28164e-16
1.34129e-11
1.0928e-06
1.36172e-24
2.85597e-20
5.26898e-16
1.33838e-11
1.09161e-06
1.36097e-24
2.85454e-20
5.26643e-16
1.33781e-11
1.09137e-06
1.35916e-24
2.85116e-20
5.26048e-16
1.33643e-11
1.0908e-06
1.35887e-24
2.85061e-20
5.25948e-16
1.3362e-11
1.0907e-06
1.35839e-24
2.8497e-20
5.25786e-16
1.33581e-11
1.09053e-06
1.35839e-24
2.8497e-20
5.25786e-16
1.33581e-11
1.09053e-06
1.35887e-24
2.85061e-20
5.25948e-16
1.3362e-11
1.0907e-06
1.35916e-24
2.85116e-20
5.26048e-16
1.33643e-11
1.0908e-06
1.36097e-24
2.85454e-20
5.26643e-16
1.33781e-11
1.09137e-06
1.36172e-24
2.85597e-20
5.26898e-16
1.33838e-11
1.09161e-06
1.36559e-24
2.86316e-20
5.28164e-16
1.34129e-11
1.0928e-06
1.36688e-24
2.8656e-20
5.28601e-16
1.34228e-11
1.09321e-06
1.36135e-24
2.85633e-20
5.27435e-16
1.34303e-11
1.09463e-06
1.3589e-24
2.85228e-20
5.26903e-16
1.34288e-11
1.09494e-06
1.16553e-24
2.51344e-20
4.75374e-16
1.28069e-11
1.08793e-06
1.16549e-24
2.51356e-20
4.79126e-16
1.33791e-11
1.08561e-06
1.35884e-24
2.85216e-20
5.30541e-16
1.39952e-11
1.09263e-06
1.3613e-24
2.85622e-20
5.3107e-16
1.39963e-11
1.09233e-06
1.36682e-24
2.86548e-20
5.32212e-16
1.39868e-11
1.09093e-06
1.36554e-24
2.86305e-20
5.31771e-16
1.39766e-11
1.09053e-06
1.36167e-24
2.85585e-20
5.30494e-16
1.39464e-11
1.08934e-06
1.36092e-24
2.85442e-20
5.30238e-16
1.39404e-11
1.08911e-06
1.35911e-24
2.85104e-20
5.29637e-16
1.39262e-11
1.08854e-06
1.35882e-24
2.85049e-20
5.29536e-16
1.39238e-11
1.08844e-06
1.35834e-24
2.84958e-20
5.29373e-16
1.39198e-11
1.08828e-06
1.35834e-24
2.84958e-20
5.29373e-16
1.39198e-11
1.08828e-06
1.35882e-24
2.85049e-20
5.29536e-16
1.39238e-11
1.08844e-06
1.35911e-24
2.85104e-20
5.29637e-16
1.39262e-11
1.08854e-06
1.36092e-24
2.85442e-20
5.30238e-16
1.39404e-11
1.08911e-06
1.36167e-24
2.85585e-20
5.30494e-16
1.39464e-11
1.08934e-06
1.36554e-24
2.86305e-20
5.31771e-16
1.39766e-11
1.09053e-06
1.36682e-24
2.86548e-20
5.32212e-16
1.39868e-11
1.09093e-06
1.3613e-24
2.85622e-20
5.3107e-16
1.39963e-11
1.09233e-06
1.35884e-24
2.85216e-20
5.30541e-16
1.39952e-11
1.09263e-06
1.16549e-24
2.51356e-20
4.79126e-16
1.33791e-11
1.08561e-06
1.16545e-24
2.51388e-20
4.83218e-16
1.39486e-11
1.08334e-06
1.35878e-24
2.85222e-20
5.34509e-16
1.45591e-11
1.09037e-06
1.36125e-24
2.8563e-20
5.35036e-16
1.45598e-11
1.09007e-06
1.36677e-24
2.86555e-20
5.36152e-16
1.45482e-11
1.08869e-06
1.36549e-24
2.86311e-20
5.35707e-16
1.45377e-11
1.08829e-06
1.36162e-24
2.85591e-20
5.34418e-16
1.45064e-11
1.08712e-06
1.36087e-24
2.85449e-20
5.3416e-16
1.45003e-11
1.08688e-06
1.35906e-24
2.85111e-20
5.33553e-16
1.44856e-11
1.08632e-06
1.35877e-24
2.85055e-20
5.33451e-16
1.4483e-11
1.08622e-06
1.35829e-24
2.84965e-20
5.33286e-16
1.44789e-11
1.08606e-06
1.35829e-24
2.84965e-20
5.33286e-16
1.44789e-11
1.08606e-06
1.35877e-24
2.85055e-20
5.33451e-16
1.4483e-11
1.08622e-06
1.35906e-24
2.85111e-20
5.33553e-16
1.44856e-11
1.08632e-06
1.36086e-24
2.85449e-20
5.3416e-16
1.45003e-11
1.08688e-06
1.36162e-24
2.85591e-20
5.34418e-16
1.45064e-11
1.08712e-06
1.36549e-24
2.86311e-20
5.35707e-16
1.45377e-11
1.08829e-06
1.36677e-24
2.86555e-20
5.36152e-16
1.45482e-11
1.08869e-06
1.36125e-24
2.8563e-20
5.35036e-16
1.45598e-11
1.09007e-06
1.35878e-24
2.85222e-20
5.34509e-16
1.4559e-11
1.09037e-06
1.16545e-24
2.51388e-20
4.83218e-16
1.39486e-11
1.08334e-06
1.16542e-24
2.51442e-20
4.87649e-16
1.45155e-11
1.08107e-06
1.35872e-24
2.85249e-20
5.38807e-16
1.51202e-11
1.08811e-06
1.3612e-24
2.85658e-20
5.39331e-16
1.51205e-11
1.08782e-06
1.36672e-24
2.86581e-20
5.40418e-16
1.5107e-11
1.08646e-06
1.36544e-24
2.86338e-20
5.3997e-16
1.50961e-11
1.08606e-06
1.36157e-24
2.85618e-20
5.38668e-16
1.50638e-11
1.08489e-06
1.36082e-24
2.85475e-20
5.38407e-16
1.50575e-11
1.08466e-06
1.35901e-24
2.85137e-20
5.37794e-16
1.50422e-11
1.08411e-06
1.35872e-24
2.85082e-20
5.37691e-16
1.50396e-11
1.08401e-06
1.35824e-24
2.84991e-20
5.37525e-16
1.50353e-11
1.08384e-06
1.35824e-24
2.84991e-20
5.37525e-16
1.50353e-11
1.08384e-06
1.35872e-24
2.85082e-20
5.37691e-16
1.50396e-11
1.08401e-06
1.35901e-24
2.85137e-20
5.37794e-16
1.50422e-11
1.08411e-06
1.36082e-24
2.85475e-20
5.38407e-16
1.50575e-11
1.08466e-06
1.36157e-24
2.85618e-20
5.38668e-16
1.50638e-11
1.08489e-06
1.36544e-24
2.86338e-20
5.3997e-16
1.50961e-11
1.08606e-06
1.36672e-24
2.86581e-20
5.40418e-16
1.5107e-11
1.08646e-06
1.3612e-24
2.85658e-20
5.39331e-16
1.51205e-11
1.08782e-06
1.35872e-24
2.85249e-20
5.38807e-16
1.51202e-11
1.08811e-06
1.16542e-24
2.51442e-20
4.87649e-16
1.45155e-11
1.08107e-06
0.00195362
0.000567561
2.99964e-05
3.46142e-07
6.7248e-10
1.25818e-12
1.05759e-12
1.06443e-12
1.06592e-12
1.06621e-12
1.06631e-12
1.06691e-12
1.06985e-12
1.07332e-12
1.1015e-12
1.12509e-12
1.37022e-12
1.50092e-12
4.79e-12
5.59001e-12
0.00208963
0.000609649
3.2839e-05
3.89519e-07
7.8725e-10
1.31555e-12
1.05737e-12
1.06437e-12
1.0659e-12
1.06619e-12
1.06627e-12
1.06676e-12
1.06977e-12
1.0733e-12
1.10197e-12
1.12586e-12
1.3743e-12
1.50589e-12
4.83385e-12
5.64363e-12
0.00208994
0.000609519
3.28047e-05
3.88912e-07
7.85525e-10
1.31474e-12
1.05737e-12
1.06437e-12
1.0659e-12
1.06619e-12
1.06627e-12
1.06677e-12
1.06978e-12
1.07332e-12
1.102e-12
1.12589e-12
1.37438e-12
1.50597e-12
4.83428e-12
5.64408e-12
0.00209129
0.000608459
3.2573e-05
3.84686e-07
7.73458e-10
1.30898e-12
1.05736e-12
1.06437e-12
1.0659e-12
1.06619e-12
1.06628e-12
1.06681e-12
1.06983e-12
1.07337e-12
1.10209e-12
1.126e-12
1.37465e-12
1.50626e-12
4.83569e-12
5.64531e-12
0.00208946
0.000607782
3.25151e-05
3.83778e-07
7.70931e-10
1.30772e-12
1.05736e-12
1.06437e-12
1.0659e-12
1.06619e-12
1.06628e-12
1.06681e-12
1.06983e-12
1.07337e-12
1.10209e-12
1.126e-12
1.37466e-12
1.50627e-12
4.83572e-12
5.64534e-12
0.0020848
0.000605749
3.23263e-05
3.80774e-07
7.62657e-10
1.30362e-12
1.05736e-12
1.06437e-12
1.0659e-12
1.06619e-12
1.06628e-12
1.06681e-12
1.06983e-12
1.07338e-12
1.1021e-12
1.12601e-12
1.37468e-12
1.50628e-12
4.83578e-12
5.64537e-12
0.00208375
0.000605365
3.22944e-05
3.80282e-07
7.61293e-10
1.30294e-12
1.05736e-12
1.06437e-12
1.0659e-12
1.06619e-12
1.06628e-12
1.06681e-12
1.06983e-12
1.07338e-12
1.1021e-12
1.12601e-12
1.37468e-12
1.50628e-12
4.83578e-12
5.64537e-12
0.00208152
0.000604417
3.22086e-05
3.78936e-07
7.57605e-10
1.30111e-12
1.05736e-12
1.06437e-12
1.0659e-12
1.06619e-12
1.06628e-12
1.06681e-12
1.06983e-12
1.07338e-12
1.1021e-12
1.12601e-12
1.37468e-12
1.50628e-12
4.83578e-12
5.64537e-12
0.00208109
0.00060426
3.21955e-05
3.78735e-07
7.57048e-10
1.30083e-12
1.05736e-12
1.06437e-12
1.0659e-12
1.06619e-12
1.06628e-12
1.06681e-12
1.06983e-12
1.07338e-12
1.1021e-12
1.12601e-12
1.37468e-12
1.50628e-12
4.83578e-12
5.64537e-12
0.00208046
0.000603994
3.21714e-05
3.78358e-07
7.56016e-10
1.30032e-12
1.05736e-12
1.06437e-12
1.0659e-12
1.06619e-12
1.06628e-12
1.06681e-12
1.06983e-12
1.07338e-12
1.1021e-12
1.12601e-12
1.37468e-12
1.50628e-12
4.83578e-12
5.64537e-12
0.00208046
0.000603994
3.21714e-05
3.78358e-07
7.56016e-10
1.30032e-12
1.05736e-12
1.06437e-12
1.0659e-12
1.06619e-12
1.06628e-12
1.06681e-12
1.06983e-12
1.07338e-12
1.1021e-12
1.12601e-12
1.37468e-12
1.50628e-12
4.83578e-12
5.64537e-12
0.00208109
0.00060426
3.21955e-05
3.78735e-07
7.57048e-10
1.30083e-12
1.05736e-12
1.06437e-12
1.0659e-12
1.06619e-12
1.06628e-12
1.06681e-12
1.06983e-12
1.07338e-12
1.1021e-12
1.12601e-12
1.37468e-12
1.50628e-12
4.83578e-12
5.64537e-12
0.00208152
0.000604417
3.22086e-05
3.78936e-07
7.57605e-10
1.30111e-12
1.05736e-12
1.06437e-12
1.0659e-12
1.06619e-12
1.06628e-12
1.06681e-12
1.06983e-12
1.07338e-12
1.1021e-12
1.12601e-12
1.37468e-12
1.50628e-12
4.83578e-12
5.64537e-12
0.00208375
0.000605365
3.22944e-05
3.80282e-07
7.61293e-10
1.30294e-12
1.05736e-12
1.06437e-12
1.0659e-12
1.06619e-12
1.06628e-12
1.06681e-12
1.06983e-12
1.07338e-12
1.1021e-12
1.12601e-12
1.37468e-12
1.50628e-12
4.83578e-12
5.64537e-12
0.0020848
0.000605749
3.23263e-05
3.80774e-07
7.62657e-10
1.30362e-12
1.05736e-12
1.06437e-12
1.0659e-12
1.06619e-12
1.06628e-12
1.06681e-12
1.06983e-12
1.07338e-12
1.1021e-12
1.12601e-12
1.37468e-12
1.50628e-12
4.83578e-12
5.64537e-12
0.00208946
0.000607782
3.25151e-05
3.83778e-07
7.70931e-10
1.30772e-12
1.05736e-12
1.06437e-12
1.0659e-12
1.06619e-12
1.06628e-12
1.06681e-12
1.06983e-12
1.07337e-12
1.10209e-12
1.126e-12
1.37466e-12
1.50627e-12
4.83572e-12
5.64534e-12
0.00209129
0.000608459
3.2573e-05
3.84686e-07
7.73458e-10
1.30898e-12
1.05736e-12
1.06437e-12
1.0659e-12
1.06619e-12
1.06628e-12
1.06681e-12
1.06983e-12
1.07337e-12
1.10209e-12
1.126e-12
1.37465e-12
1.50626e-12
4.83569e-12
5.64531e-12
0.00208994
0.000609519
3.28047e-05
3.88912e-07
7.85525e-10
1.31474e-12
1.05737e-12
1.06437e-12
1.0659e-12
1.06619e-12
1.06627e-12
1.06677e-12
1.06978e-12
1.07332e-12
1.102e-12
1.12589e-12
1.37438e-12
1.50597e-12
4.83428e-12
5.64408e-12
0.00208963
0.000609649
3.2839e-05
3.89519e-07
7.8725e-10
1.31555e-12
1.05737e-12
1.06437e-12
1.0659e-12
1.06619e-12
1.06627e-12
1.06676e-12
1.06977e-12
1.0733e-12
1.10197e-12
1.12586e-12
1.3743e-12
1.50589e-12
4.83385e-12
5.64363e-12
0.00195362
0.000567561
2.99964e-05
3.46142e-07
6.7248e-10
1.25818e-12
1.05759e-12
1.06443e-12
1.06592e-12
1.06621e-12
1.06631e-12
1.06691e-12
1.06985e-12
1.07332e-12
1.1015e-12
1.12509e-12
1.37022e-12
1.50092e-12
4.79e-12
5.59001e-12
0.0215695
0.00814111
0.00062636
9.2981e-06
2.25109e-08
4.53033e-11
3.65902e-11
3.68527e-11
3.69104e-11
3.69214e-11
3.69252e-11
3.69464e-11
3.70497e-11
3.7171e-11
3.81527e-11
3.89695e-11
4.74533e-11
5.19325e-11
1.64403e-10
1.9118e-10
0.0226572
0.0086125
0.000675841
1.03006e-05
2.58249e-08
4.73247e-11
3.65816e-11
3.68503e-11
3.69094e-11
3.69207e-11
3.6924e-11
3.69412e-11
3.70469e-11
3.71704e-11
3.81696e-11
3.89965e-11
4.7596e-11
5.21053e-11
1.65906e-10
1.93011e-10
0.0226572
0.00860996
0.000675046
1.02828e-05
2.57636e-08
4.72903e-11
3.65814e-11
3.68502e-11
3.69094e-11
3.69207e-11
3.6924e-11
3.69415e-11
3.70473e-11
3.71709e-11
3.81705e-11
3.89975e-11
4.75987e-11
5.21082e-11
1.65921e-10
1.93026e-10
0.0226673
0.00859597
0.000670187
1.01675e-05
2.53594e-08
4.70568e-11
3.65811e-11
3.68503e-11