/*--------------------------------*- C++ -*----------------------------------*\
  =========                 |
  \\      /  F ield         | OpenFOAM: The Open Source CFD Toolbox
   \\    /   O peration     | Website:  https://openfoam.org
    \\  /    A nd           | Version:  8
     \\/     M anipulation  |
\*---------------------------------------------------------------------------*/
FoamFile
{
    version     2.0;
    format      ascii;
    class       volScalarField;
    location    "4.7";
    object      p;
}
// * * * * * * * * * * * * * * * * * * * * * * * * * * * * * * * * * * * * * //

dimensions      [0 2 -2 0 0 0 0];

internalField   nonuniform List<scalar> 
180000
(
0.000904249
0.000843187
0.000881597
0.000751024
0.000820184
0.000889665
0.000828836
0.000866961
0.000737723
0.000805733
0.000888801
0.000828012
0.000866098
0.000737003
0.00080492
0.000884441
0.00082382
0.000861721
0.000733306
0.000800814
0.000883823
0.000823232
0.000861099
0.000732791
0.000800231
0.00088179
0.000821291
0.000859053
0.000731087
0.000798316
0.000881435
0.000820954
0.000858695
0.000730791
0.000797979
0.000880495
0.000820057
0.000857747
0.000730004
0.000797091
0.000880342
0.000819911
0.000857592
0.000729875
0.000796945
0.000880068
0.00081965
0.000857315
0.000729646
0.000796686
0.000880068
0.00081965
0.000857315
0.000729646
0.000796686
0.000880342
0.000819911
0.000857592
0.000729875
0.000796945
0.000880495
0.000820057
0.000857747
0.000730004
0.000797091
0.000881435
0.000820954
0.000858695
0.000730791
0.000797979
0.00088179
0.000821291
0.000859053
0.000731087
0.000798316
0.000883823
0.000823232
0.000861099
0.000732791
0.000800231
0.000884441
0.00082382
0.000861721
0.000733306
0.000800814
0.000888801
0.000828012
0.000866098
0.000737003
0.00080492
0.000889665
0.000828836
0.000866961
0.000737723
0.000805733
0.000904249
0.000843187
0.000881597
0.000751024
0.000820184
0.000736395
0.000708328
0.00072692
0.000658079
0.000697234
0.000730085
0.000701217
0.000720246
0.000650301
0.000689734
0.000729703
0.000700801
0.000719844
0.000649872
0.000689304
0.000727731
0.000698642
0.000717761
0.000647636
0.000687091
0.000727452
0.000698339
0.000717465
0.000647325
0.000686778
0.000726524
0.000697332
0.000716483
0.000646289
0.000685738
0.000726363
0.000697157
0.000716312
0.00064611
0.000685556
0.000725932
0.00069669
0.000715855
0.00064563
0.000685073
0.000725862
0.000696615
0.000715781
0.000645552
0.000684993
0.000725736
0.000696478
0.000715647
0.000645412
0.000684852
0.000725736
0.000696478
0.000715647
0.000645412
0.000684852
0.000725862
0.000696615
0.000715781
0.000645552
0.000684993
0.000725932
0.00069669
0.000715855
0.00064563
0.000685073
0.000726363
0.000697157
0.000716312
0.00064611
0.000685556
0.000726524
0.000697332
0.000716483
0.000646289
0.000685738
0.000727452
0.000698339
0.000717465
0.000647325
0.000686778
0.000727731
0.000698642
0.000717761
0.000647636
0.000687091
0.000729703
0.000700801
0.000719844
0.000649872
0.000689304
0.000730085
0.000701217
0.000720246
0.000650301
0.000689734
0.000736395
0.000708328
0.00072692
0.000658079
0.000697234
0.000528781
0.000506421
0.000521681
0.000467761
0.000500759
0.000523694
0.000500969
0.000516413
0.000462099
0.000495077
0.000523386
0.000500649
0.000516095
0.000461785
0.000494749
0.000521767
0.000498957
0.000514418
0.000460113
0.00049303
0.00052154
0.000498722
0.000514182
0.000459883
0.000492788
0.00052078
0.000497934
0.000513394
0.00045911
0.000491982
0.000520649
0.000497799
0.000513257
0.000458977
0.000491842
0.000520296
0.000497434
0.000512891
0.000458618
0.000491467
0.00052024
0.000497375
0.000512831
0.000458561
0.000491406
0.000520137
0.000497269
0.000512724
0.000458456
0.000491296
0.000520137
0.000497269
0.000512724
0.000458456
0.000491296
0.00052024
0.000497375
0.000512831
0.000458561
0.000491406
0.000520296
0.000497434
0.000512891
0.000458618
0.000491467
0.000520649
0.000497799
0.000513257
0.000458977
0.000491842
0.00052078
0.000497934
0.000513394
0.00045911
0.000491982
0.00052154
0.000498722
0.000514182
0.000459883
0.000492788
0.000521767
0.000498957
0.000514418
0.000460113
0.00049303
0.000523386
0.000500649
0.000516095
0.000461785
0.000494749
0.000523694
0.000500969
0.000516413
0.000462099
0.000495077
0.000528781
0.000506421
0.000521681
0.000467761
0.000500759
0.000494526
0.000468307
0.000486296
0.000425489
0.000464884
0.000488439
0.000462143
0.000480131
0.00041953
0.000458591
0.000488069
0.00046178
0.000479757
0.000419197
0.000458224
0.000486128
0.000459856
0.000477788
0.000417416
0.000456298
0.000485857
0.00045959
0.000477513
0.000417172
0.000456029
0.000484948
0.000458696
0.000476589
0.000416349
0.000455127
0.000484792
0.000458543
0.000476429
0.000416208
0.000454971
0.000484371
0.000458129
0.000476001
0.000415827
0.000454553
0.000484304
0.000458063
0.000475932
0.000415766
0.000454485
0.000484181
0.000457942
0.000475807
0.000415655
0.000454362
0.000484181
0.000457942
0.000475807
0.000415655
0.000454362
0.000484304
0.000458063
0.000475932
0.000415766
0.000454485
0.000484371
0.000458129
0.000476001
0.000415827
0.000454553
0.000484792
0.000458543
0.000476429
0.000416208
0.000454971
0.000484948
0.000458696
0.000476589
0.000416349
0.000455127
0.000485857
0.00045959
0.000477513
0.000417172
0.000456029
0.000486128
0.000459856
0.000477788
0.000417416
0.000456298
0.000488069
0.00046178
0.000479757
0.000419197
0.000458224
0.000488439
0.000462143
0.000480131
0.00041953
0.000458591
0.000494526
0.000468307
0.000486296
0.000425489
0.000464884
0.000517614
0.000489898
0.000509262
0.000444286
0.000489283
0.000511202
0.000483401
0.000502766
0.000438015
0.000482672
0.000510808
0.000483014
0.000502368
0.000437661
0.000482282
0.000508731
0.000480955
0.000500262
0.000435757
0.000480219
0.000508442
0.000480671
0.000499967
0.000435497
0.000479931
0.00050747
0.000479713
0.000498979
0.000434616
0.000478965
0.000507303
0.00047955
0.000498808
0.000434465
0.000478798
0.000506852
0.000479107
0.00049835
0.000434058
0.00047835
0.00050678
0.000479036
0.000498275
0.000433993
0.000478277
0.000506649
0.000478907
0.000498141
0.000433874
0.000478146
0.000506649
0.000478907
0.000498141
0.000433874
0.000478146
0.00050678
0.000479036
0.000498275
0.000433993
0.000478277
0.000506852
0.000479107
0.00049835
0.000434058
0.00047835
0.000507303
0.00047955
0.000498808
0.000434465
0.000478798
0.00050747
0.000479713
0.000498979
0.000434616
0.000478965
0.000508442
0.000480671
0.000499967
0.000435497
0.000479931
0.000508731
0.000480955
0.000500262
0.000435757
0.000480219
0.000510808
0.000483014
0.000502368
0.000437661
0.000482282
0.000511202
0.000483401
0.000502766
0.000438015
0.000482672
0.000517614
0.000489898
0.000509262
0.000444286
0.000489283
0.000530392
0.00050326
0.000522705
0.000457823
0.000506426
0.000524166
0.000496905
0.000516381
0.000451628
0.000499961
0.000523779
0.000496522
0.000515989
0.000451273
0.000499572
0.00052172
0.000494466
0.000513896
0.000449354
0.000497504
0.000521434
0.000494184
0.000513604
0.000449092
0.000497216
0.000520469
0.000493227
0.00051262
0.000448203
0.000496247
0.000520304
0.000493064
0.000512451
0.000448051
0.000496079
0.000519857
0.000492621
0.000511995
0.00044764
0.000495629
0.000519785
0.000492551
0.000511921
0.000447574
0.000495556
0.000519655
0.000492422
0.000511788
0.000447454
0.000495424
0.000519655
0.000492422
0.000511788
0.000447454
0.000495424
0.000519785
0.000492551
0.000511921
0.000447574
0.000495556
0.000519857
0.000492621
0.000511995
0.00044764
0.000495629
0.000520304
0.000493064
0.000512451
0.000448051
0.000496079
0.000520469
0.000493227
0.00051262
0.000448203
0.000496247
0.000521434
0.000494184
0.000513604
0.000449092
0.000497216
0.00052172
0.000494466
0.000513896
0.000449354
0.000497504
0.000523779
0.000496522
0.000515989
0.000451273
0.000499572
0.000524166
0.000496905
0.000516381
0.000451628
0.000499961
0.000530392
0.00050326
0.000522705
0.000457823
0.000506426
0.0005303
0.00050392
0.000523317
0.000459316
0.000511201
0.000524288
0.000497772
0.000517208
0.000453303
0.000504953
0.00052391
0.000497397
0.000516825
0.000452955
0.000504571
0.000521882
0.000495368
0.000514762
0.000451053
0.000502522
0.000521601
0.00049509
0.000514475
0.000450794
0.000502237
0.000520649
0.000494145
0.000513504
0.000449912
0.000501275
0.000520487
0.000493984
0.000513338
0.000449762
0.000501109
0.000520045
0.000493547
0.000512887
0.000449354
0.000500663
0.000519975
0.000493477
0.000512815
0.000449289
0.000500591
0.000519846
0.000493349
0.000512683
0.000449169
0.00050046
0.000519846
0.000493349
0.000512683
0.000449169
0.00050046
0.000519975
0.000493477
0.000512815
0.000449289
0.000500591
0.000520045
0.000493547
0.000512887
0.000449354
0.000500663
0.000520487
0.000493984
0.000513338
0.000449762
0.000501109
0.000520649
0.000494145
0.000513504
0.000449912
0.000501275
0.000521601
0.00049509
0.000514475
0.000450794
0.000502237
0.000521882
0.000495368
0.000514762
0.000451053
0.000502522
0.00052391
0.000497397
0.000516825
0.000452955
0.000504571
0.000524288
0.000497772
0.000517208
0.000453303
0.000504953
0.0005303
0.00050392
0.000523317
0.000459316
0.000511201
0.000527669
0.000501703
0.000521246
0.000457663
0.000512884
0.000521784
0.000495694
0.000515272
0.000451793
0.000506787
0.00052141
0.000495323
0.000514893
0.000451448
0.000506409
0.000519388
0.000493303
0.000512838
0.000449554
0.000504362
0.000519109
0.000493027
0.000512553
0.000449297
0.000504078
0.000518159
0.000492085
0.000511585
0.000448418
0.000503117
0.000517998
0.000491925
0.00051142
0.000448269
0.000502952
0.000517557
0.00049149
0.00051097
0.000447862
0.000502505
0.000517487
0.00049142
0.000510898
0.000447797
0.000502433
0.000517359
0.000491293
0.000510767
0.000447678
0.000502302
0.000517359
0.000491293
0.000510767
0.000447678
0.000502302
0.000517487
0.00049142
0.000510898
0.000447797
0.000502433
0.000517557
0.00049149
0.00051097
0.000447862
0.000502505
0.000517998
0.000491925
0.00051142
0.000448269
0.000502952
0.000518159
0.000492085
0.000511585
0.000448418
0.000503117
0.000519109
0.000493027
0.000512553
0.000449297
0.000504078
0.000519388
0.000493303
0.000512838
0.000449554
0.000504362
0.00052141
0.000495323
0.000514893
0.000451448
0.000506409
0.000521784
0.000495694
0.000515272
0.000451793
0.000506787
0.000527669
0.000501703
0.000521246
0.000457663
0.000512884
0.00052643
0.000500733
0.000520502
0.000457108
0.000515313
0.000520638
0.000494827
0.000514628
0.000451346
0.000509324
0.000520266
0.000494459
0.000514251
0.000451004
0.000508947
0.000518241
0.000492439
0.000512195
0.000449109
0.000506895
0.000517963
0.000492163
0.000511911
0.000448853
0.000506611
0.00051701
0.00049122
0.000510941
0.000447972
0.000505645
0.000516849
0.00049106
0.000510776
0.000447824
0.00050548
0.000516408
0.000490624
0.000510325
0.000447416
0.000505031
0.000516338
0.000490555
0.000510253
0.000447351
0.000504959
0.000516209
0.000490427
0.000510122
0.000447232
0.000504828
0.000516209
0.000490427
0.000510122
0.000447232
0.000504828
0.000516338
0.000490555
0.000510253
0.000447351
0.000504959
0.000516408
0.000490624
0.000510325
0.000447416
0.000505031
0.000516849
0.00049106
0.000510776
0.000447824
0.00050548
0.00051701
0.00049122
0.000510941
0.000447972
0.000505645
0.000517963
0.000492163
0.000511911
0.000448853
0.000506611
0.000518241
0.000492439
0.000512195
0.000449109
0.000506895
0.000520266
0.000494459
0.000514251
0.000451004
0.000508947
0.000520638
0.000494827
0.000514628
0.000451346
0.000509324
0.00052643
0.000500733
0.000520502
0.000457108
0.000515313
0.000526129
0.000500703
0.000520686
0.000457548
0.000518032
0.000520431
0.0004949
0.000514913
0.000451887
0.00051214
0.000520062
0.000494535
0.000514539
0.000451547
0.000511764
0.000518036
0.000492514
0.000512482
0.000449651
0.000509706
0.000517758
0.00049224
0.000512199
0.000449396
0.000509422
0.000516804
0.000491295
0.000511227
0.000448513
0.000508452
0.000516643
0.000491136
0.000511062
0.000448364
0.000508287
0.0005162
0.000490698
0.000510611
0.000447956
0.000507836
0.000516131
0.000490629
0.000510539
0.000447891
0.000507764
0.000516001
0.000490502
0.000510407
0.000447772
0.000507633
0.000516001
0.000490502
0.000510407
0.000447772
0.000507633
0.000516131
0.000490629
0.000510539
0.000447891
0.000507764
0.0005162
0.000490698
0.000510611
0.000447956
0.000507836
0.000516643
0.000491136
0.000511062
0.000448364
0.000508287
0.000516804
0.000491295
0.000511227
0.000448513
0.000508452
0.000517758
0.00049224
0.000512199
0.000449396
0.000509422
0.000518036
0.000492514
0.000512482
0.000449651
0.000509706
0.000520062
0.000494535
0.000514539
0.000451547
0.000511764
0.000520431
0.0004949
0.000514913
0.000451887
0.00051214
0.000526129
0.000500703
0.000520686
0.000457548
0.000518032
0.000525921
0.000500787
0.000520958
0.000458189
0.000519899
0.000520324
0.00049509
0.00051529
0.000452629
0.000514091
0.000519957
0.000494727
0.000514919
0.000452292
0.000513717
0.000517933
0.000492709
0.000512864
0.000450396
0.000511653
0.000517656
0.000492435
0.000512582
0.000450141
0.000511369
0.000516701
0.00049149
0.00051161
0.000449257
0.000510395
0.00051654
0.000491331
0.000511445
0.000449108
0.00051023
0.000516098
0.000490894
0.000510994
0.000448699
0.000509777
0.000516028
0.000490825
0.000510922
0.000448634
0.000509705
0.000515899
0.000490697
0.00051079
0.000448515
0.000509573
0.000515899
0.000490697
0.00051079
0.000448515
0.000509573
0.000516028
0.000490825
0.000510922
0.000448634
0.000509705
0.000516098
0.000490894
0.000510994
0.000448699
0.000509777
0.00051654
0.000491331
0.000511445
0.000449108
0.00051023
0.000516701
0.00049149
0.00051161
0.000449257
0.000510395
0.000517656
0.000492435
0.000512582
0.000450141
0.000511369
0.000517933
0.000492709
0.000512864
0.000450396
0.000511653
0.000519957
0.000494727
0.000514919
0.000452292
0.000513717
0.000520324
0.00049509
0.00051529
0.000452629
0.000514091
0.000525921
0.000500787
0.000520958
0.000458189
0.000519899
0.000525599
0.000500752
0.000521099
0.000458726
0.000518698
0.000520102
0.00049516
0.000515535
0.000453268
0.000512988
0.000519738
0.000494801
0.000515168
0.000452934
0.000512617
0.000517716
0.000492786
0.000513116
0.000451038
0.000510557
0.00051744
0.000492513
0.000512835
0.000450783
0.000510274
0.000516485
0.000491568
0.000511862
0.000449898
0.0005093
0.000516324
0.00049141
0.000511699
0.00044975
0.000509135
0.000515881
0.000490972
0.000511247
0.00044934
0.000508683
0.000515812
0.000490903
0.000511175
0.000449276
0.000508611
0.000515682
0.000490776
0.000511043
0.000449156
0.000508478
0.000515682
0.000490776
0.000511043
0.000449156
0.000508478
0.000515812
0.000490903
0.000511175
0.000449276
0.000508611
0.000515881
0.000490972
0.000511247
0.00044934
0.000508683
0.000516324
0.00049141
0.000511699
0.00044975
0.000509135
0.000516485
0.000491568
0.000511862
0.000449898
0.0005093
0.00051744
0.000492513
0.000512835
0.000450783
0.000510274
0.000517716
0.000492786
0.000513116
0.000451038
0.000510557
0.000519738
0.000494801
0.000515168
0.000452934
0.000512617
0.000520102
0.00049516
0.000515535
0.000453268
0.000512988
0.000525599
0.000500752
0.000521099
0.000458726
0.000518698
0.000525239
0.000500666
0.000521183
0.000459133
0.000516622
0.000519838
0.000495176
0.00051572
0.000453775
0.000511015
0.000519477
0.00049482
0.000515355
0.000453443
0.000510648
0.000517457
0.000492808
0.000513306
0.000451549
0.000508594
0.000517182
0.000492536
0.000513026
0.000451295
0.000508313
0.000516226
0.000491591
0.000512054
0.000450409
0.00050734
0.000516067
0.000491433
0.000511891
0.000450261
0.000507176
0.000515623
0.000490995
0.000511439
0.00044985
0.000506723
0.000515554
0.000490927
0.000511367
0.000449786
0.000506652
0.000515424
0.000490799
0.000511235
0.000449666
0.00050652
0.000515424
0.000490799
0.000511235
0.000449666
0.00050652
0.000515554
0.000490927
0.000511367
0.000449786
0.000506652
0.000515623
0.000490995
0.000511439
0.00044985
0.000506723
0.000516067
0.000491433
0.000511891
0.000450261
0.000507176
0.000516226
0.000491591
0.000512054
0.000450409
0.00050734
0.000517182
0.000492536
0.000513026
0.000451295
0.000508313
0.000517457
0.000492808
0.000513306
0.000451549
0.000508594
0.000519477
0.00049482
0.000515355
0.000453443
0.000510648
0.000519838
0.000495176
0.00051572
0.000453775
0.000511015
0.000525239
0.000500666
0.000521183
0.000459133
0.000516622
0.000524901
0.000500591
0.000521272
0.000459458
0.000514808
0.000519595
0.000495201
0.000515908
0.000454198
0.0005093
0.000519236
0.000494847
0.000515546
0.000453868
0.000508936
0.000517219
0.000492839
0.0005135
0.000451976
0.000506888
0.000516945
0.000492568
0.000513221
0.000451723
0.000506608
0.000515989
0.000491623
0.000512249
0.000450836
0.000505637
0.00051583
0.000491466
0.000512086
0.000450689
0.000505473
0.000515386
0.000491028
0.000511634
0.000450277
0.000505021
0.000515317
0.000490959
0.000511563
0.000450213
0.00050495
0.000515187
0.000490832
0.00051143
0.000450093
0.000504818
0.000515187
0.000490832
0.00051143
0.000450093
0.000504818
0.000515317
0.000490959
0.000511563
0.000450213
0.00050495
0.000515386
0.000491028
0.000511634
0.000450277
0.000505021
0.00051583
0.000491466
0.000512086
0.000450689
0.000505473
0.000515989
0.000491623
0.000512249
0.000450836
0.000505637
0.000516945
0.000492568
0.000513221
0.000451723
0.000506608
0.000517219
0.000492839
0.0005135
0.000451976
0.000506888
0.000519236
0.000494847
0.000515546
0.000453868
0.000508936
0.000519595
0.000495201
0.000515908
0.000454198
0.0005093
0.000524901
0.000500591
0.000521272
0.000459458
0.000514808
0.000524595
0.000500537
0.000521377
0.000459722
0.000513256
0.000519381
0.000495245
0.00051611
0.000454559
0.000507844
0.000519024
0.000494894
0.00051575
0.000454231
0.000507484
0.000517011
0.000492889
0.000513709
0.000452341
0.000505442
0.000516737
0.00049262
0.000513431
0.000452089
0.000505163
0.000515781
0.000491674
0.000512458
0.000451202
0.000504192
0.000515622
0.000491518
0.000512295
0.000451055
0.000504029
0.000515178
0.000491079
0.000511843
0.000450643
0.000503577
0.000515109
0.000491011
0.000511772
0.000450579
0.000503506
0.000514979
0.000490883
0.00051164
0.000450459
0.000503374
0.000514979
0.000490883
0.00051164
0.000450459
0.000503374
0.000515109
0.000491011
0.000511772
0.000450579
0.000503506
0.000515178
0.000491079
0.000511843
0.000450643
0.000503577
0.000515622
0.000491518
0.000512295
0.000451055
0.000504029
0.000515781
0.000491674
0.000512458
0.000451202
0.000504192
0.000516737
0.00049262
0.000513431
0.000452089
0.000505163
0.000517011
0.000492889
0.000513709
0.000452341
0.000505442
0.000519024
0.000494894
0.00051575
0.000454231
0.000507484
0.000519381
0.000495245
0.00051611
0.000454559
0.000507844
0.000524595
0.000500537
0.000521377
0.000459722
0.000513256
0.000524311
0.000500498
0.000521492
0.000459927
0.000511768
0.000519187
0.000495301
0.000516319
0.000454857
0.00050645
0.000518833
0.000494952
0.000515963
0.000454532
0.000506092
0.000516823
0.000492951
0.000513925
0.000452646
0.000504056
0.00051655
0.000492683
0.000513648
0.000452394
0.000503779
0.000515594
0.000491737
0.000512675
0.000451506
0.000502809
0.000515435
0.000491581
0.000512513
0.00045136
0.000502646
0.000514991
0.000491143
0.000512061
0.000450948
0.000502195
0.000514922
0.000491075
0.00051199
0.000450884
0.000502124
0.000514792
0.000490947
0.000511858
0.000450764
0.000501992
0.000514792
0.000490947
0.000511858
0.000450764
0.000501992
0.000514922
0.000491075
0.00051199
0.000450884
0.000502124
0.000514991
0.000491143
0.000512061
0.000450948
0.000502195
0.000515435
0.000491581
0.000512513
0.00045136
0.000502646
0.000515594
0.000491737
0.000512675
0.000451506
0.000502809
0.00051655
0.000492683
0.000513648
0.000452394
0.000503779
0.000516823
0.000492951
0.000513925
0.000452646
0.000504056
0.000518833
0.000494952
0.000515963
0.000454532
0.000506092
0.000519187
0.000495301
0.000516319
0.000454857
0.00050645
0.000524311
0.000500498
0.000521492
0.000459927
0.000511768
0.000524045
0.000500468
0.000521614
0.000460068
0.000510273
0.000519009
0.000495364
0.000516534
0.000455092
0.000505046
0.000518657
0.000495018
0.000516179
0.000454769
0.000504691
0.000516651
0.000493021
0.000514146
0.000452886
0.000502662
0.000516379
0.000492754
0.00051387
0.000452636
0.000502386
0.000515423
0.000491808
0.000512897
0.000451748
0.000501417
0.000515265
0.000491653
0.000512736
0.000451602
0.000501255
0.00051482
0.000491214
0.000512283
0.00045119
0.000500804
0.000514751
0.000491147
0.000512213
0.000451126
0.000500733
0.000514622
0.000491019
0.00051208
0.000451006
0.000500601
0.000514622
0.000491019
0.00051208
0.000451006
0.000500601
0.000514751
0.000491147
0.000512213
0.000451126
0.000500733
0.00051482
0.000491214
0.000512283
0.00045119
0.000500804
0.000515265
0.000491653
0.000512736
0.000451602
0.000501255
0.000515423
0.000491808
0.000512897
0.000451748
0.000501417
0.000516379
0.000492754
0.00051387
0.000452636
0.000502386
0.000516651
0.000493021
0.000514146
0.000452886
0.000502662
0.000518657
0.000495018
0.000516179
0.000454769
0.000504691
0.000519009
0.000495364
0.000516534
0.000455092
0.000505046
0.000524045
0.000500468
0.000521614
0.000460068
0.000510273
0.000523796
0.000500448
0.000521743
0.000460147
0.000508784
0.000518846
0.000495434
0.000516753
0.000455262
0.000503646
0.000518497
0.00049509
0.000516402
0.000454942
0.000503294
0.000516494
0.000493098
0.000514373
0.000453064
0.000501272
0.000516224
0.000492832
0.000514098
0.000452814
0.000500997
0.000515267
0.000491887
0.000513125
0.000451926
0.000500029
0.00051511
0.000491732
0.000512964
0.000451781
0.000499868
0.000514665
0.000491293
0.000512511
0.000451368
0.000499416
0.000514596
0.000491226
0.000512441
0.000451305
0.000499346
0.000514466
0.000491098
0.000512309
0.000451185
0.000499214
0.000514466
0.000491098
0.000512309
0.000451185
0.000499214
0.000514596
0.000491226
0.000512441
0.000451305
0.000499346
0.000514665
0.000491293
0.000512511
0.000451368
0.000499416
0.00051511
0.000491732
0.000512964
0.000451781
0.000499868
0.000515267
0.000491887
0.000513125
0.000451926
0.000500029
0.000516224
0.000492832
0.000514098
0.000452814
0.000500997
0.000516494
0.000493098
0.000514373
0.000453064
0.000501272
0.000518497
0.00049509
0.000516402
0.000454942
0.000503294
0.000518846
0.000495434
0.000516753
0.000455262
0.000503646
0.000523796
0.000500448
0.000521743
0.000460147
0.000508784
0.000523565
0.000500437
0.000521882
0.000460164
0.000507313
0.000518699
0.000495512
0.000516981
0.00045537
0.000502261
0.000518352
0.000495171
0.000516632
0.000455052
0.000501913
0.000516354
0.000493183
0.000514607
0.000453178
0.000499898
0.000516084
0.000492918
0.000514333
0.00045293
0.000499624
0.000515127
0.000491973
0.000513361
0.000452042
0.000498657
0.00051497
0.000491819
0.000513201
0.000451897
0.000498496
0.000514525
0.00049138
0.000512747
0.000451485
0.000498045
0.000514457
0.000491313
0.000512678
0.000451422
0.000497975
0.000514327
0.000491185
0.000512545
0.000451301
0.000497843
0.000514327
0.000491185
0.000512545
0.000451301
0.000497843
0.000514457
0.000491313
0.000512678
0.000451422
0.000497975
0.000514525
0.00049138
0.000512747
0.000451485
0.000498045
0.00051497
0.000491819
0.000513201
0.000451897
0.000498496
0.000515127
0.000491973
0.000513361
0.000452042
0.000498657
0.000516084
0.000492918
0.000514333
0.00045293
0.000499624
0.000516354
0.000493183
0.000514607
0.000453178
0.000499898
0.000518352
0.000495171
0.000516632
0.000455052
0.000501913
0.000518699
0.000495512
0.000516981
0.00045537
0.000502261
0.000523565
0.000500437
0.000521882
0.000460164
0.000507313
0.000523351
0.000500437
0.000522032
0.00046012
0.000505795
0.000518567
0.000495598
0.000517217
0.000455415
0.000500829
0.000518223
0.000495259
0.00051687
0.000455099
0.000500483
0.000516229
0.000493277
0.000514851
0.000453231
0.000498475
0.000515961
0.000493013
0.000514578
0.000452984
0.000498203
0.000515004
0.000492068
0.000513606
0.000452096
0.000497237
0.000514847
0.000491914
0.000513446
0.000451952
0.000497078
0.000514402
0.000491475
0.000512993
0.00045154
0.000496627
0.000514334
0.000491408
0.000512923
0.000451477
0.000496557
0.000514204
0.00049128
0.000512791
0.000451356
0.000496425
0.000514204
0.00049128
0.000512791
0.000451356
0.000496425
0.000514334
0.000491408
0.000512923
0.000451477
0.000496557
0.000514402
0.000491475
0.000512993
0.00045154
0.000496627
0.000514847
0.000491914
0.000513446
0.000451952
0.000497078
0.000515004
0.000492068
0.000513606
0.000452096
0.000497237
0.000515961
0.000493013
0.000514578
0.000452984
0.000498203
0.000516229
0.000493277
0.000514851
0.000453231
0.000498475
0.000518223
0.000495259
0.00051687
0.000455099
0.000500483
0.000518567
0.000495598
0.000517217
0.000455415
0.000500829
0.000523351
0.000500437
0.000522032
0.00046012
0.000505795
-1.62629e-05
1.5813e-05
2.82564e-06
6.97976e-07
2.51128e-07
1.80726e-07
1.65294e-07
1.62493e-07
1.61806e-07
1.61662e-07
1.61615e-07
1.61593e-07
1.61495e-07
1.61386e-07
1.60519e-07
1.59851e-07
1.53415e-07
1.50644e-07
1.11916e-07
1.07812e-07
-1.63322e-05
1.57736e-05
2.84006e-06
7.02954e-07
2.52349e-07
1.81026e-07
1.65346e-07
1.62492e-07
1.61789e-07
1.61642e-07
1.61593e-07
1.61571e-07
1.61471e-07
1.61359e-07
1.60478e-07
1.59803e-07
1.53295e-07
1.50518e-07
1.11616e-07
1.076e-07
-1.63254e-05
1.57629e-05
2.83669e-06
7.02489e-07
2.52255e-07
1.81014e-07
1.65343e-07
1.62491e-07
1.61789e-07
1.61641e-07
1.61593e-07
1.61571e-07
1.61471e-07
1.61359e-07
1.60477e-07
1.59802e-07
1.53293e-07
1.50516e-07
1.11613e-07
1.07598e-07
-1.62955e-05
1.57098e-05
2.82015e-06
7.00273e-07
2.51822e-07
1.80957e-07
1.6533e-07
1.62489e-07
1.61787e-07
1.6164e-07
1.61592e-07
1.61569e-07
1.61469e-07
1.61357e-07
1.60475e-07
1.59799e-07
1.53286e-07
1.50509e-07
1.11601e-07
1.07592e-07
-1.62897e-05
1.57013e-05
2.81711e-06
6.99797e-07
2.51714e-07
1.80939e-07
1.65326e-07
1.62488e-07
1.61787e-07
1.6164e-07
1.61591e-07
1.61569e-07
1.61469e-07
1.61357e-07
1.60475e-07
1.59799e-07
1.53286e-07
1.50509e-07
1.11601e-07
1.07591e-07
-1.62725e-05
1.56752e-05
2.80809e-06
6.98445e-07
2.51416e-07
1.80891e-07
1.65314e-07
1.62486e-07
1.61786e-07
1.6164e-07
1.61591e-07
1.61569e-07
1.61469e-07
1.61357e-07
1.60474e-07
1.59798e-07
1.53286e-07
1.50509e-07
1.11601e-07
1.07591e-07
-1.62692e-05
1.56702e-05
2.80633e-06
6.98165e-07
2.51351e-07
1.80879e-07
1.65312e-07
1.62485e-07
1.61786e-07
1.6164e-07
1.61591e-07
1.61569e-07
1.61469e-07
1.61357e-07
1.60474e-07
1.59798e-07
1.53286e-07
1.50509e-07
1.11601e-07
1.07591e-07
-1.6261e-05
1.56582e-05
2.80213e-06
6.9753e-07
2.51208e-07
1.80856e-07
1.65306e-07
1.62484e-07
1.61786e-07
1.6164e-07
1.61591e-07
1.61569e-07
1.61469e-07
1.61357e-07
1.60474e-07
1.59798e-07
1.53286e-07
1.50509e-07
1.11601e-07
1.07591e-07
-1.62596e-05
1.56561e-05
2.80137e-06
6.97408e-07
2.5118e-07
1.80851e-07
1.65305e-07
1.62484e-07
1.61786e-07
1.6164e-07
1.61591e-07
1.61569e-07
1.61469e-07
1.61357e-07
1.60474e-07
1.59798e-07
1.53286e-07
1.50509e-07
1.11601e-07
1.07591e-07
-1.62572e-05
1.56525e-05
2.80015e-06
6.97223e-07
2.51138e-07
1.80844e-07
1.65303e-07
1.62484e-07
1.61786e-07
1.6164e-07
1.61591e-07
1.61569e-07
1.61469e-07
1.61357e-07
1.60474e-07
1.59798e-07
1.53286e-07
1.50509e-07
1.11601e-07
1.07591e-07
-1.62572e-05
1.56525e-05
2.80015e-06
6.97223e-07
2.51138e-07
1.80844e-07
1.65303e-07
1.62484e-07
1.61786e-07
1.6164e-07
1.61591e-07
1.61569e-07
1.61469e-07
1.61357e-07
1.60474e-07
1.59798e-07
1.53286e-07
1.50509e-07
1.11601e-07
1.07591e-07
-1.62596e-05
1.56561e-05
2.80137e-06
6.97408e-07
2.5118e-07
1.80851e-07
1.65305e-07
1.62484e-07
1.61786e-07
1.6164e-07
1.61591e-07
1.61569e-07
1.61469e-07
1.61357e-07
1.60474e-07
1.59798e-07
1.53286e-07
1.50509e-07
1.11601e-07
1.07591e-07
-1.6261e-05
1.56582e-05
2.80213e-06
6.9753e-07
2.51208e-07
1.80856e-07
1.65306e-07
1.62484e-07
1.61786e-07
1.6164e-07
1.61591e-07
1.61569e-07
1.61469e-07
1.61357e-07
1.60474e-07
1.59798e-07
1.53286e-07
1.50509e-07
1.11601e-07
1.07591e-07
-1.62692e-05
1.56702e-05
2.80633e-06
6.98165e-07
2.51351e-07
1.80879e-07
1.65312e-07
1.62485e-07
1.61786e-07
1.6164e-07
1.61591e-07
1.61569e-07
1.61469e-07
1.61357e-07
1.60474e-07
1.59798e-07
1.53286e-07
1.50509e-07
1.11601e-07
1.07591e-07
-1.62725e-05
1.56752e-05
2.80809e-06
6.98445e-07
2.51416e-07
1.80891e-07
1.65314e-07
1.62486e-07
1.61786e-07
1.6164e-07
1.61591e-07
1.61569e-07
1.61469e-07
1.61357e-07
1.60474e-07
1.59798e-07
1.53286e-07
1.50509e-07
1.11601e-07
1.07591e-07
-1.62897e-05
1.57013e-05
2.81711e-06
6.99797e-07
2.51714e-07
1.80939e-07
1.65326e-07
1.62488e-07
1.61787e-07
1.6164e-07
1.61591e-07
1.61569e-07
1.61469e-07
1.61357e-07
1.60475e-07
1.59799e-07
1.53286e-07
1.50509e-07
1.11601e-07
1.07591e-07
-1.62955e-05
1.57098e-05
2.82015e-06
7.00273e-07
2.51822e-07
1.80957e-07
1.6533e-07
1.62489e-07
1.61787e-07
1.6164e-07
1.61592e-07
1.61569e-07
1.61469e-07
1.61357e-07
1.60475e-07
1.59799e-07
1.53286e-07
1.50509e-07
1.11601e-07
1.07592e-07
-1.63254e-05
1.57629e-05
2.83669e-06
7.02489e-07
2.52255e-07
1.81014e-07
1.65343e-07
1.62491e-07
1.61789e-07
1.61641e-07
1.61593e-07
1.61571e-07
1.61471e-07
1.61359e-07
1.60477e-07
1.59802e-07
1.53293e-07
1.50516e-07
1.11613e-07
1.07598e-07
-1.63322e-05
1.57736e-05
2.84006e-06
7.02954e-07
2.52349e-07
1.81026e-07
1.65346e-07
1.62492e-07
1.61789e-07
1.61642e-07
1.61593e-07
1.61571e-07
1.61471e-07
1.61359e-07
1.60478e-07
1.59803e-07
1.53295e-07
1.50518e-07
1.11616e-07
1.076e-07
-1.62629e-05
1.5813e-05
2.82564e-06
6.97976e-07
2.51128e-07
1.80726e-07
1.65294e-07
1.62493e-07
1.61806e-07
1.61662e-07
1.61615e-07
1.61593e-07
1.61495e-07
1.61386e-07
1.60519e-07
1.59851e-07
1.53415e-07
1.50644e-07
1.11916e-07
1.07812e-07
-1.58791e-05
1.59837e-05
2.85111e-06
7.03405e-07
2.52077e-07
1.80947e-07
1.65319e-07
1.62588e-07
1.61896e-07
1.6175e-07
1.61703e-07
1.61681e-07
1.61581e-07
1.6147e-07
1.60564e-07
1.59833e-07
1.53333e-07
1.50537e-07
1.11321e-07
1.07188e-07
-1.59433e-05
1.59442e-05
2.8657e-06
7.08439e-07
2.53312e-07
1.8125e-07
1.65372e-07
1.62586e-07
1.6188e-07
1.6173e-07
1.61681e-07
1.61659e-07
1.61557e-07
1.61444e-07
1.60522e-07
1.59784e-07
1.53212e-07
1.50409e-07
1.11017e-07
1.06972e-07
-1.59364e-05
1.59334e-05
2.86229e-06
7.0797e-07
2.53218e-07
1.81237e-07
1.65369e-07
1.62585e-07
1.6188e-07
1.6173e-07
1.61681e-07
1.61658e-07
1.61557e-07
1.61444e-07
1.60521e-07
1.59783e-07
1.5321e-07
1.50407e-07
1.11014e-07