/*--------------------------------*- C++ -*----------------------------------*\
  =========                 |
  \\      /  F ield         | OpenFOAM: The Open Source CFD Toolbox
   \\    /   O peration     | Website:  https://openfoam.org
    \\  /    A nd           | Version:  8
     \\/     M anipulation  |
\*---------------------------------------------------------------------------*/
FoamFile
{
    version     2.0;
    format      ascii;
    class       volScalarField;
    location    "0.9";
    object      H2;
}
// * * * * * * * * * * * * * * * * * * * * * * * * * * * * * * * * * * * * * //

dimensions      [0 1 -1 0 0 0 0];

internalField   nonuniform List<scalar> 
180000
(
-4.55194e-35
-7.68082e-30
-1.2043e-24
-1.73393e-19
-2.27403e-14
-5.46231e-35
-9.17329e-30
-1.43081e-24
-2.04812e-19
-2.66865e-14
-5.48655e-35
-9.21325e-30
-1.43691e-24
-2.05664e-19
-2.67943e-14
-5.56173e-35
-9.33903e-30
-1.45642e-24
-2.08433e-19
-2.7151e-14
-5.5637e-35
-9.3425e-30
-1.45699e-24
-2.08518e-19
-2.71624e-14
-5.56697e-35
-9.34839e-30
-1.45798e-24
-2.08671e-19
-2.71839e-14
-5.56665e-35
-9.34795e-30
-1.45792e-24
-2.08666e-19
-2.71836e-14
-5.56621e-35
-9.34736e-30
-1.45785e-24
-2.0866e-19
-2.71834e-14
-5.56594e-35
-9.34694e-30
-1.4578e-24
-2.08652e-19
-2.71826e-14
-5.56573e-35
-9.34661e-30
-1.45775e-24
-2.08647e-19
-2.7182e-14
-5.56573e-35
-9.34661e-30
-1.45775e-24
-2.08647e-19
-2.7182e-14
-5.56594e-35
-9.34694e-30
-1.4578e-24
-2.08652e-19
-2.71826e-14
-5.56621e-35
-9.34736e-30
-1.45785e-24
-2.0866e-19
-2.71834e-14
-5.56665e-35
-9.34795e-30
-1.45792e-24
-2.08666e-19
-2.71836e-14
-5.56697e-35
-9.34839e-30
-1.45798e-24
-2.08671e-19
-2.71839e-14
-5.5637e-35
-9.3425e-30
-1.45699e-24
-2.08518e-19
-2.71624e-14
-5.56173e-35
-9.33903e-30
-1.45642e-24
-2.08433e-19
-2.7151e-14
-5.48655e-35
-9.21326e-30
-1.43691e-24
-2.05664e-19
-2.67943e-14
-5.46231e-35
-9.17329e-30
-1.43081e-24
-2.04812e-19
-2.66865e-14
-4.55194e-35
-7.68082e-30
-1.2043e-24
-1.73393e-19
-2.27403e-14
-4.55674e-35
-7.76987e-30
-1.32797e-24
-3.30635e-19
-2.60243e-13
-5.4672e-35
-9.27025e-30
-1.56739e-24
-3.80587e-19
-2.94376e-13
-5.49144e-35
-9.31041e-30
-1.57381e-24
-3.81897e-19
-2.95227e-13
-5.56661e-35
-9.43667e-30
-1.59425e-24
-3.86153e-19
-2.98143e-13
-5.56858e-35
-9.44014e-30
-1.59483e-24
-3.86281e-19
-2.98233e-13
-5.57184e-35
-9.44601e-30
-1.59582e-24
-3.86481e-19
-2.98378e-13
-5.57152e-35
-9.44557e-30
-1.59577e-24
-3.86473e-19
-2.98376e-13
-5.57108e-35
-9.44496e-30
-1.59569e-24
-3.86458e-19
-2.9837e-13
-5.57081e-35
-9.44454e-30
-1.59563e-24
-3.86448e-19
-2.98365e-13
-5.57059e-35
-9.44421e-30
-1.59558e-24
-3.86439e-19
-2.9836e-13
-5.57059e-35
-9.44421e-30
-1.59558e-24
-3.86439e-19
-2.9836e-13
-5.57081e-35
-9.44454e-30
-1.59563e-24
-3.86448e-19
-2.98365e-13
-5.57108e-35
-9.44496e-30
-1.59569e-24
-3.86458e-19
-2.9837e-13
-5.57152e-35
-9.44557e-30
-1.59577e-24
-3.86473e-19
-2.98376e-13
-5.57184e-35
-9.44601e-30
-1.59582e-24
-3.86481e-19
-2.98378e-13
-5.56858e-35
-9.44014e-30
-1.59483e-24
-3.86281e-19
-2.98233e-13
-5.56661e-35
-9.43667e-30
-1.59425e-24
-3.86153e-19
-2.98143e-13
-5.49144e-35
-9.31041e-30
-1.57381e-24
-3.81897e-19
-2.95227e-13
-5.4672e-35
-9.27025e-30
-1.56739e-24
-3.80587e-19
-2.94376e-13
-4.55674e-35
-7.76987e-30
-1.32797e-24
-3.30635e-19
-2.60243e-13
-4.84896e-35
-1.13045e-29
-5.93825e-24
-5.98432e-18
-8.52883e-12
-5.77594e-35
-1.30515e-29
-6.54972e-24
-6.55936e-18
-9.39887e-12
-5.80054e-35
-1.30972e-29
-6.56453e-24
-6.57259e-18
-9.41862e-12
-5.87628e-35
-1.32368e-29
-6.60941e-24
-6.61668e-18
-9.48958e-12
-5.87825e-35
-1.32404e-29
-6.61056e-24
-6.61789e-18
-9.49166e-12
-5.8813e-35
-1.32449e-29
-6.6109e-24
-6.61897e-18
-9.49482e-12
-5.88097e-35
-1.32443e-29
-6.61073e-24
-6.61888e-18
-9.49476e-12
-5.88048e-35
-1.32432e-29
-6.61019e-24
-6.61854e-18
-9.49454e-12
-5.88021e-35
-1.32428e-29
-6.61007e-24
-6.61845e-18
-9.49441e-12
-5.87999e-35
-1.32424e-29
-6.60994e-24
-6.61835e-18
-9.49429e-12
-5.87999e-35
-1.32424e-29
-6.60994e-24
-6.61835e-18
-9.49429e-12
-5.88021e-35
-1.32428e-29
-6.61007e-24
-6.61845e-18
-9.49441e-12
-5.88048e-35
-1.32432e-29
-6.61019e-24
-6.61854e-18
-9.49454e-12
-5.88097e-35
-1.32443e-29
-6.61073e-24
-6.61888e-18
-9.49476e-12
-5.8813e-35
-1.32449e-29
-6.6109e-24
-6.61897e-18
-9.49482e-12
-5.87825e-35
-1.32404e-29
-6.61056e-24
-6.61789e-18
-9.49166e-12
-5.87628e-35
-1.32368e-29
-6.60941e-24
-6.61668e-18
-9.48958e-12
-5.80054e-35
-1.30972e-29
-6.56453e-24
-6.57259e-18
-9.41862e-12
-5.77594e-35
-1.30515e-29
-6.54972e-24
-6.55937e-18
-9.39887e-12
-4.84896e-35
-1.13045e-29
-5.93825e-24
-5.98432e-18
-8.52882e-12
-9.91152e-35
-6.96031e-29
-7.8654e-23
-9.10465e-17
-1.27033e-10
-1.10152e-34
-7.40488e-29
-8.33365e-23
-9.73095e-17
-1.36642e-10
-1.10433e-34
-7.41503e-29
-8.34363e-23
-9.74434e-17
-1.36846e-10
-1.11199e-34
-7.43916e-29
-8.37102e-23
-9.78901e-17
-1.376e-10
-1.11216e-34
-7.43953e-29
-8.37155e-23
-9.79017e-17
-1.37622e-10
-1.11207e-34
-7.43704e-29
-8.36972e-23
-9.79049e-17
-1.37651e-10
-1.11202e-34
-7.4368e-29
-8.36954e-23
-9.79037e-17
-1.37651e-10
-1.11188e-34
-7.43592e-29
-8.36878e-23
-9.78986e-17
-1.37648e-10
-1.11185e-34
-7.43584e-29
-8.36871e-23
-9.78977e-17
-1.37646e-10
-1.11182e-34
-7.4357e-29
-8.36859e-23
-9.78965e-17
-1.37645e-10
-1.11182e-34
-7.4357e-29
-8.36859e-23
-9.78965e-17
-1.37645e-10
-1.11185e-34
-7.43584e-29
-8.36871e-23
-9.78977e-17
-1.37646e-10
-1.11188e-34
-7.43592e-29
-8.36878e-23
-9.78986e-17
-1.37648e-10
-1.11202e-34
-7.4368e-29
-8.36954e-23
-9.79037e-17
-1.37651e-10
-1.11207e-34
-7.43704e-29
-8.36972e-23
-9.79049e-17
-1.37651e-10
-1.11216e-34
-7.43953e-29
-8.37155e-23
-9.79017e-17
-1.37622e-10
-1.11199e-34
-7.43916e-29
-8.37102e-23
-9.78901e-17
-1.376e-10
-1.10433e-34
-7.41503e-29
-8.34363e-23
-9.74434e-17
-1.36846e-10
-1.10152e-34
-7.40489e-29
-8.33365e-23
-9.73095e-17
-1.36642e-10
-9.91152e-35
-6.96031e-29
-7.8654e-23
-9.10465e-17
-1.27033e-10
-5.90945e-34
-6.03351e-28
-7.04047e-22
-7.73854e-16
-1.01018e-09
-6.08038e-34
-6.19653e-28
-7.27637e-22
-8.06808e-16
-1.0583e-09
-6.08415e-34
-6.19974e-28
-7.281e-22
-8.07473e-16
-1.05926e-09
-6.08389e-34
-6.20111e-28
-7.29018e-22
-8.09559e-16
-1.06284e-09
-6.08351e-34
-6.20088e-28
-7.29023e-22
-8.0961e-16
-1.06295e-09
-6.0792e-34
-6.19741e-28
-7.28774e-22
-8.09542e-16
-1.06304e-09
-6.07897e-34
-6.19724e-28
-7.28761e-22
-8.09535e-16
-1.06304e-09
-6.07804e-34
-6.19648e-28
-7.28696e-22
-8.09493e-16
-1.06302e-09
-6.07801e-34
-6.19646e-28
-7.28693e-22
-8.0949e-16
-1.06301e-09
-6.07791e-34
-6.19637e-28
-7.28685e-22
-8.09482e-16
-1.06301e-09
-6.07791e-34
-6.19637e-28
-7.28685e-22
-8.09482e-16
-1.06301e-09
-6.07801e-34
-6.19646e-28
-7.28693e-22
-8.0949e-16
-1.06301e-09
-6.07804e-34
-6.19648e-28
-7.28696e-22
-8.09493e-16
-1.06302e-09
-6.07897e-34
-6.19724e-28
-7.28761e-22
-8.09535e-16
-1.06304e-09
-6.0792e-34
-6.19741e-28
-7.28774e-22
-8.09542e-16
-1.06304e-09
-6.08351e-34
-6.20088e-28
-7.29023e-22
-8.0961e-16
-1.06295e-09
-6.08389e-34
-6.20111e-28
-7.29018e-22
-8.09559e-16
-1.06284e-09
-6.08416e-34
-6.19974e-28
-7.281e-22
-8.07473e-16
-1.05926e-09
-6.08038e-34
-6.19653e-28
-7.27637e-22
-8.06808e-16
-1.0583e-09
-5.90945e-34
-6.03351e-28
-7.04047e-22
-7.73854e-16
-1.01018e-09
-3.65363e-33
-3.6771e-27
-4.00806e-21
-4.03909e-15
-4.77582e-09
-3.63753e-33
-3.68392e-27
-4.03893e-21
-4.09613e-15
-4.84982e-09
-3.63705e-33
-3.6839e-27
-4.03938e-21
-4.09714e-15
-4.85108e-09
-3.62675e-33
-3.67744e-27
-4.03641e-21
-4.09873e-15
-4.85545e-09
-3.62625e-33
-3.6771e-27
-4.03622e-21
-4.09875e-15
-4.8556e-09
-3.62294e-33
-3.67461e-27
-4.03437e-21
-4.09788e-15
-4.85533e-09
-3.62282e-33
-3.67452e-27
-4.03431e-21
-4.09786e-15
-4.85535e-09
-3.62225e-33
-3.67407e-27
-4.03396e-21
-4.09765e-15
-4.85525e-09
-3.62226e-33
-3.67408e-27
-4.03397e-21
-4.09766e-15
-4.85526e-09
-3.62222e-33
-3.67404e-27
-4.03394e-21
-4.09764e-15
-4.85525e-09
-3.62222e-33
-3.67404e-27
-4.03394e-21
-4.09764e-15
-4.85525e-09
-3.62226e-33
-3.67408e-27
-4.03397e-21
-4.09766e-15
-4.85526e-09
-3.62225e-33
-3.67407e-27
-4.03396e-21
-4.09765e-15
-4.85525e-09
-3.62282e-33
-3.67452e-27
-4.03431e-21
-4.09786e-15
-4.85535e-09
-3.62294e-33
-3.67461e-27
-4.03437e-21
-4.09788e-15
-4.85533e-09
-3.62625e-33
-3.6771e-27
-4.03622e-21
-4.09875e-15
-4.8556e-09
-3.62675e-33
-3.67744e-27
-4.03641e-21
-4.09873e-15
-4.85545e-09
-3.63705e-33
-3.6839e-27
-4.03938e-21
-4.09714e-15
-4.85108e-09
-3.63753e-33
-3.68392e-27
-4.03893e-21
-4.09613e-15
-4.84982e-09
-3.65363e-33
-3.6771e-27
-4.00806e-21
-4.03909e-15
-4.77582e-09
-1.67356e-32
-1.54843e-26
-1.5202e-20
-1.34701e-14
-1.35643e-08
-1.62522e-32
-1.51165e-26
-1.48746e-20
-1.3187e-14
-1.31689e-08
-1.62419e-32
-1.51086e-26
-1.48674e-20
-1.31808e-14
-1.31602e-08
-1.6164e-32
-1.50515e-26
-1.48219e-20
-1.31489e-14
-1.31244e-08
-1.6161e-32
-1.50494e-26
-1.48204e-20
-1.3148e-14
-1.31236e-08
-1.61442e-32
-1.50373e-26
-1.48115e-20
-1.3143e-14
-1.312e-08
-1.61438e-32
-1.5037e-26
-1.48114e-20
-1.31431e-14
-1.31202e-08
-1.61413e-32
-1.50353e-26
-1.48102e-20
-1.31425e-14
-1.312e-08
-1.61415e-32
-1.50354e-26
-1.48103e-20
-1.31426e-14
-1.31201e-08
-1.61413e-32
-1.50353e-26
-1.48103e-20
-1.31426e-14
-1.31202e-08
-1.61413e-32
-1.50353e-26
-1.48103e-20
-1.31426e-14
-1.31202e-08
-1.61415e-32
-1.50354e-26
-1.48103e-20
-1.31426e-14
-1.31201e-08
-1.61413e-32
-1.50353e-26
-1.48102e-20
-1.31425e-14
-1.312e-08
-1.61438e-32
-1.5037e-26
-1.48114e-20
-1.31431e-14
-1.31202e-08
-1.61442e-32
-1.50373e-26
-1.48115e-20
-1.3143e-14
-1.312e-08
-1.6161e-32
-1.50494e-26
-1.48204e-20
-1.3148e-14
-1.31236e-08
-1.6164e-32
-1.50515e-26
-1.48219e-20
-1.31489e-14
-1.31244e-08
-1.62419e-32
-1.51086e-26
-1.48674e-20
-1.31808e-14
-1.31602e-08
-1.62522e-32
-1.51165e-26
-1.48746e-20
-1.3187e-14
-1.31689e-08
-1.67356e-32
-1.54843e-26
-1.5202e-20
-1.34701e-14
-1.35643e-08
-5.57808e-32
-4.54352e-26
-3.78458e-20
-2.64719e-14
-1.78789e-08
-5.27277e-32
-4.29406e-26
-3.54827e-20
-2.42871e-14
-1.52201e-08
-5.26656e-32
-4.28899e-26
-3.54345e-20
-2.42426e-14
-1.51657e-08
-5.23026e-32
-4.26183e-26
-3.5205e-20
-2.40545e-14
-1.49512e-08
-5.22901e-32
-4.26096e-26
-3.51984e-20
-2.40498e-14
-1.49461e-08
-5.22296e-32
-4.25691e-26
-3.51701e-20
-2.40328e-14
-1.49315e-08
-5.22285e-32
-4.25687e-26
-3.51701e-20
-2.40332e-14
-1.49322e-08
-5.22208e-32
-4.25639e-26
-3.51674e-20
-2.40323e-14
-1.49323e-08
-5.22216e-32
-4.25646e-26
-3.51681e-20
-2.4033e-14
-1.4933e-08
-5.22215e-32
-4.25646e-26
-3.51683e-20
-2.40333e-14
-1.49334e-08
-5.22215e-32
-4.25646e-26
-3.51683e-20
-2.40333e-14
-1.49334e-08
-5.22216e-32
-4.25646e-26
-3.51681e-20
-2.4033e-14
-1.4933e-08
-5.22208e-32
-4.25639e-26
-3.51674e-20
-2.40323e-14
-1.49323e-08
-5.22285e-32
-4.25687e-26
-3.51701e-20
-2.40332e-14
-1.49322e-08
-5.22296e-32
-4.25691e-26
-3.51701e-20
-2.40328e-14
-1.49315e-08
-5.22901e-32
-4.26096e-26
-3.51984e-20
-2.40498e-14
-1.49461e-08
-5.23026e-32
-4.26183e-26
-3.5205e-20
-2.40545e-14
-1.49512e-08
-5.26656e-32
-4.28899e-26
-3.54345e-20
-2.42426e-14
-1.51657e-08
-5.27277e-32
-4.29406e-26
-3.54827e-20
-2.42871e-14
-1.52201e-08
-5.57808e-32
-4.54352e-26
-3.78458e-20
-2.64719e-14
-1.78789e-08
-1.31919e-31
-8.5991e-26
-4.87264e-20
-9.704e-15
2.72203e-08
-1.20082e-31
-7.66895e-26
-4.04349e-20
-2.57517e-15
3.47122e-08
-1.19847e-31
-7.65046e-26
-4.02693e-20
-2.43225e-15
3.48619e-08
-1.18664e-31
-7.56586e-26
-3.95836e-20
-1.8804e-15
3.54333e-08
-1.18628e-31
-7.56347e-26
-3.95661e-20
-1.86733e-15
3.54469e-08
-1.1847e-31
-7.55417e-26
-3.95092e-20
-1.83407e-15
3.54771e-08
-1.18469e-31
-7.55423e-26
-3.95109e-20
-1.83609e-15
3.54751e-08
-1.18453e-31
-7.55349e-26
-3.9509e-20
-1.83731e-15
3.5473e-08
-1.18456e-31
-7.55374e-26
-3.95112e-20
-1.83919e-15
3.54711e-08
-1.18456e-31
-7.55384e-26
-3.95125e-20
-1.84051e-15
3.54697e-08
-1.18456e-31
-7.55384e-26
-3.95125e-20
-1.84051e-15
3.54697e-08
-1.18456e-31
-7.55374e-26
-3.95112e-20
-1.83919e-15
3.54711e-08
-1.18453e-31
-7.55349e-26
-3.9509e-20
-1.83731e-15
3.5473e-08
-1.18469e-31
-7.55423e-26
-3.95109e-20
-1.83609e-15
3.54751e-08
-1.1847e-31
-7.55417e-26
-3.95092e-20
-1.83407e-15
3.54771e-08
-1.18628e-31
-7.56347e-26
-3.95661e-20
-1.86733e-15
3.54469e-08
-1.18664e-31
-7.56586e-26
-3.95836e-20
-1.8804e-15
3.54333e-08
-1.19847e-31
-7.65046e-26
-4.02693e-20
-2.43225e-15
3.48619e-08
-1.20082e-31
-7.66895e-26
-4.04349e-20
-2.57517e-15
3.47122e-08
-1.31919e-31
-8.5991e-26
-4.87264e-20
-9.704e-15
2.72203e-08
-1.87321e-31
-5.29054e-26
5.2242e-20
1.296e-13
2.06211e-07
-1.55424e-31
-3.00551e-26
7.03117e-20
1.43132e-13
2.1744e-07
-1.54797e-31
-2.96021e-26
7.06729e-20
1.43405e-13
2.17665e-07
-1.52063e-31
-2.7846e-26
7.19354e-20
1.44325e-13
2.18441e-07
-1.51989e-31
-2.78047e-26
7.19611e-20
1.44343e-13
2.18458e-07
-1.5172e-31
-2.7689e-26
7.20025e-20
1.4436e-13
2.18475e-07
-1.51725e-31
-2.76957e-26
7.1995e-20
1.44354e-13
2.18471e-07
-1.51709e-31
-2.76985e-26
7.19837e-20
1.44343e-13
2.18462e-07
-1.51718e-31
-2.77049e-26
7.19786e-20
1.44339e-13
2.1846e-07
-1.51722e-31
-2.77093e-26
7.19743e-20
1.44336e-13
2.18457e-07
-1.51722e-31
-2.77093e-26
7.19743e-20
1.44336e-13
2.18457e-07
-1.51718e-31
-2.77049e-26
7.19786e-20
1.44339e-13
2.1846e-07
-1.51709e-31
-2.76985e-26
7.19837e-20
1.44343e-13
2.18462e-07
-1.51725e-31
-2.76957e-26
7.1995e-20
1.44354e-13
2.18471e-07
-1.5172e-31
-2.7689e-26
7.20025e-20
1.4436e-13
2.18475e-07
-1.51989e-31
-2.78047e-26
7.19611e-20
1.44343e-13
2.18458e-07
-1.52063e-31
-2.7846e-26
7.19354e-20
1.44325e-13
2.18441e-07
-1.54797e-31
-2.96021e-26
7.06729e-20
1.43405e-13
2.17665e-07
-1.55424e-31
-3.00551e-26
7.03117e-20
1.43132e-13
2.1744e-07
-1.87321e-31
-5.29054e-26
5.2242e-20
1.296e-13
2.06211e-07
-1.03907e-31
1.29539e-25
2.56498e-19
2.61849e-13
2.00167e-07
-3.40566e-32
1.75174e-25
2.8851e-19
2.81926e-13
2.11454e-07
-3.26835e-32
1.76083e-25
2.89154e-19
2.82334e-13
2.1168e-07
-2.75041e-32
1.79127e-25
2.91163e-19
2.83646e-13
2.12468e-07
-2.73864e-32
1.79185e-25
2.91196e-19
2.83671e-13
2.12485e-07
-2.70771e-32
1.79252e-25
2.91188e-19
2.83676e-13
2.12505e-07
-2.71002e-32
1.79231e-25
2.91171e-19
2.83666e-13
2.12501e-07
-2.71172e-32
1.79195e-25
2.91135e-19
2.83646e-13
2.12493e-07
-2.71372e-32
1.79182e-25
2.91126e-19
2.8364e-13
2.1249e-07
-2.71519e-32
1.7917e-25
2.91117e-19
2.83635e-13
2.12488e-07
-2.71519e-32
1.7917e-25
2.91117e-19
2.83635e-13
2.12488e-07
-2.71372e-32
1.79182e-25
2.91126e-19
2.8364e-13
2.1249e-07
-2.71172e-32
1.79195e-25
2.91135e-19
2.83646e-13
2.12493e-07
-2.71002e-32
1.79231e-25
2.91171e-19
2.83666e-13
2.12501e-07
-2.70771e-32
1.79252e-25
2.91188e-19
2.83676e-13
2.12505e-07
-2.73864e-32
1.79185e-25
2.91196e-19
2.83671e-13
2.12485e-07
-2.7504e-32
1.79127e-25
2.91163e-19
2.83646e-13
2.12468e-07
-3.26835e-32
1.76083e-25
2.89154e-19
2.82334e-13
2.1168e-07
-3.40565e-32
1.75174e-25
2.8851e-19
2.81926e-13
2.11454e-07
-1.03907e-31
1.29539e-25
2.56498e-19
2.61849e-13
2.00167e-07
2.87527e-31
5.28297e-25
5.5536e-19
3.8706e-13
1.94232e-07
4.22029e-31
6.08888e-25
6.05794e-19
4.13823e-13
2.05572e-07
4.2469e-31
6.10509e-25
6.06816e-19
4.14369e-13
2.058e-07
4.3343e-31
6.15327e-25
6.09791e-19
4.16097e-13
2.06599e-07
4.33588e-31
6.15398e-25
6.09834e-19
4.16128e-13
2.06617e-07
4.33752e-31
6.15317e-25
6.0975e-19
4.16127e-13
2.0664e-07
4.33686e-31
6.1527e-25
6.0972e-19
4.16114e-13
2.06636e-07
4.33575e-31
6.15171e-25
6.09652e-19
4.16085e-13
2.06628e-07
4.33536e-31
6.15147e-25
6.09637e-19
4.16078e-13
2.06625e-07
4.335e-31
6.15123e-25
6.09622e-19
4.1607e-13
2.06623e-07
4.335e-31
6.15123e-25
6.09622e-19
4.1607e-13
2.06623e-07
4.33536e-31
6.15147e-25
6.09637e-19
4.16078e-13
2.06625e-07
4.33575e-31
6.15171e-25
6.09652e-19
4.16085e-13
2.06628e-07
4.33686e-31
6.1527e-25
6.0972e-19
4.16114e-13
2.06636e-07
4.33752e-31
6.15317e-25
6.0975e-19
4.16127e-13
2.0664e-07
4.33588e-31
6.15398e-25
6.09834e-19
4.16128e-13
2.06617e-07
4.3343e-31
6.15327e-25
6.09791e-19
4.16097e-13
2.06599e-07
4.2469e-31
6.10509e-25
6.06816e-19
4.14369e-13
2.058e-07
4.22029e-31
6.08888e-25
6.05794e-19
4.13823e-13
2.05572e-07
2.87527e-31
5.28297e-25
5.5536e-19
3.8706e-13
1.94232e-07
1.1976e-30
1.2012e-24
9.39908e-19
5.05138e-13
1.88333e-07
1.43514e-30
1.33232e-24
1.01357e-18
5.38726e-13
1.99726e-07
1.43988e-30
1.33499e-24
1.01507e-18
5.39415e-13
1.99955e-07
1.45367e-30
1.34224e-24
1.01928e-18
5.4158e-13
2.00765e-07
1.45386e-30
1.34233e-24
1.01933e-18
5.41619e-13
2.00783e-07
1.45356e-30
1.34198e-24
1.01916e-18
5.41616e-13
2.00808e-07
1.45342e-30
1.34189e-24
1.01911e-18
5.41599e-13
2.00804e-07
1.45312e-30
1.34169e-24
1.019e-18
5.41563e-13
2.00797e-07
1.45304e-30
1.34165e-24
1.01898e-18
5.41554e-13
2.00794e-07
1.45297e-30
1.34161e-24
1.01896e-18
5.41545e-13
2.00792e-07
1.45297e-30
1.34161e-24
1.01896e-18
5.41545e-13
2.00792e-07
1.45304e-30
1.34165e-24
1.01898e-18
5.41554e-13
2.00794e-07
1.45312e-30
1.34169e-24
1.019e-18
5.41563e-13
2.00797e-07
1.45342e-30
1.34189e-24
1.01911e-18
5.41599e-13
2.00804e-07
1.45356e-30
1.34198e-24
1.01916e-18
5.41616e-13
2.00808e-07
1.45386e-30
1.34233e-24
1.01933e-18
5.41619e-13
2.00783e-07
1.45367e-30
1.34224e-24
1.01928e-18
5.4158e-13
2.00765e-07
1.43988e-30
1.33499e-24
1.01507e-18
5.39415e-13
1.99955e-07
1.43514e-30
1.33232e-24
1.01357e-18
5.38726e-13
1.99726e-07
1.1976e-30
1.2012e-24
9.39908e-19
5.05138e-13
1.88333e-07
2.86805e-30
2.19662e-24
1.40098e-18
6.15988e-13
1.82465e-07
3.2623e-30
2.39773e-24
1.503e-18
6.56543e-13
1.93909e-07
3.27027e-30
2.40186e-24
1.5051e-18
6.57377e-13
1.94141e-07
3.2912e-30
2.41245e-24
1.51086e-18
6.60001e-13
1.9496e-07
3.29141e-30
2.41255e-24
1.51093e-18
6.6005e-13
1.94978e-07
3.29021e-30
2.41182e-24
1.51066e-18
6.60049e-13
1.95006e-07
3.28994e-30
2.41168e-24
1.51059e-18
6.60029e-13
1.95002e-07
3.28931e-30
2.41133e-24
1.51044e-18
6.59987e-13
1.94996e-07
3.28919e-30
2.41127e-24
1.51041e-18
6.59976e-13
1.94993e-07
3.28906e-30
2.4112e-24
1.51037e-18
6.59965e-13
1.9499e-07
3.28906e-30
2.4112e-24
1.51037e-18
6.59965e-13
1.9499e-07
3.28919e-30
2.41127e-24
1.51041e-18
6.59976e-13
1.94993e-07
3.28931e-30
2.41133e-24
1.51044e-18
6.59987e-13
1.94996e-07
3.28994e-30
2.41168e-24
1.51059e-18
6.60029e-13
1.95002e-07
3.29021e-30
2.41182e-24
1.51066e-18
6.60049e-13
1.95006e-07
3.29141e-30
2.41255e-24
1.51093e-18
6.6005e-13
1.94978e-07
3.2912e-30
2.41245e-24
1.51086e-18
6.60001e-13
1.9496e-07
3.27027e-30
2.40186e-24
1.5051e-18
6.57377e-13
1.94141e-07
3.2623e-30
2.39773e-24
1.503e-18
6.56543e-13
1.93909e-07
2.86805e-30
2.19662e-24
1.40098e-18
6.15988e-13
1.82465e-07
5.56075e-30
3.55306e-24
1.92919e-18
7.19521e-13
1.76625e-07
6.18511e-30
3.84802e-24
2.06505e-18
7.67182e-13
1.8812e-07
6.19789e-30
3.85414e-24
2.06787e-18
7.68166e-13
1.88353e-07
6.22902e-30
3.86927e-24
2.07553e-18
7.71271e-13
1.89181e-07
6.22924e-30
3.8694e-24
2.07563e-18
7.71329e-13
1.89199e-07
6.22659e-30
3.86816e-24
2.07526e-18
7.71335e-13
1.8923e-07
6.22612e-30
3.86795e-24
2.07517e-18
7.71312e-13
1.89226e-07
6.22501e-30
3.86742e-24
2.07497e-18
7.71264e-13
1.8922e-07
6.22481e-30
3.86733e-24
2.07493e-18
7.71251e-13
1.89217e-07
6.2246e-30
3.86723e-24
2.07488e-18
7.71238e-13
1.89215e-07
6.2246e-30
3.86723e-24
2.07488e-18
7.71238e-13
1.89215e-07
6.22481e-30
3.86733e-24
2.07493e-18
7.71251e-13
1.89217e-07
6.22501e-30
3.86742e-24
2.07497e-18
7.71264e-13
1.8922e-07
6.22612e-30
3.86795e-24
2.07517e-18
7.71312e-13
1.89226e-07
6.22659e-30
3.86816e-24
2.07526e-18
7.71335e-13
1.8923e-07
6.22924e-30
3.8694e-24
2.07563e-18
7.71329e-13
1.89199e-07
6.22902e-30
3.86927e-24
2.07553e-18
7.7127e-13
1.89181e-07
6.19789e-30
3.85414e-24
2.06787e-18
7.68166e-13
1.88353e-07
6.18511e-30
3.84802e-24
2.06505e-18
7.67181e-13
1.8812e-07
5.56075e-30
3.55306e-24
1.92919e-18
7.19521e-13
1.76625e-07
9.54608e-30
5.29882e-24
2.51492e-18
8.15649e-13
1.70808e-07
1.0499e-29
5.71642e-24
2.69044e-18
8.70557e-13
1.82353e-07
1.05187e-29
5.72517e-24
2.6941e-18
8.71694e-13
1.82588e-07
1.05645e-29
5.74642e-24
2.70408e-18
8.75299e-13
1.83425e-07
1.05647e-29
5.74659e-24
2.70421e-18
8.75368e-13
1.83443e-07
1.056e-29
5.74476e-24
2.70376e-18
8.75386e-13
1.83476e-07
1.05592e-29
5.74445e-24
2.70365e-18
8.7536e-13
1.83472e-07
1.05574e-29
5.74369e-24
2.70339e-18
8.75307e-13
1.83467e-07
1.05571e-29
5.74356e-24
2.70334e-18
8.75292e-13
1.83464e-07
1.05568e-29
5.74342e-24
2.70328e-18
8.75277e-13
1.83461e-07
1.05568e-29
5.74342e-24
2.70328e-18
8.75277e-13
1.83461e-07
1.05571e-29
5.74356e-24
2.70334e-18
8.75292e-13
1.83464e-07
1.05574e-29
5.74369e-24
2.70339e-18
8.75307e-13
1.83467e-07
1.05592e-29
5.74445e-24
2.70365e-18
8.7536e-13
1.83472e-07
1.056e-29
5.74476e-24
2.70376e-18
8.75386e-13
1.83476e-07
1.05647e-29
5.74659e-24
2.70421e-18
8.75368e-13
1.83443e-07
1.05645e-29
5.74642e-24
2.70408e-18
8.75299e-13
1.83425e-07
1.05187e-29
5.72516e-24
2.6941e-18
8.71694e-13
1.82588e-07
1.0499e-29
5.71642e-24
2.69044e-18
8.70556e-13
1.82353e-07
9.54608e-30
5.29882e-24
2.51492e-18
8.15649e-13
1.70808e-07
1.50905e-29
7.45161e-24
3.14832e-18
9.0429e-13
1.65012e-07
1.65015e-29
8.02614e-24
3.36969e-18
9.66584e-13
1.76607e-07
1.65311e-29
8.03826e-24
3.37433e-18
9.67878e-13
1.76843e-07
1.65979e-29
8.06765e-24
3.38708e-18
9.72004e-13
1.77687e-07
1.65982e-29
8.0679e-24
3.38725e-18
9.72084e-13
1.77707e-07
1.65907e-29
8.0654e-24
3.38673e-18
9.72117e-13
1.77741e-07
1.65896e-29
8.06497e-24
3.38659e-18
9.72088e-13
1.77738e-07
1.65868e-29
8.06394e-24
3.38627e-18
9.7203e-13
1.77732e-07
1.65864e-29
8.06376e-24
3.38621e-18
9.72013e-13
1.77729e-07
1.65859e-29
8.06357e-24
3.38614e-18
9.71997e-13
1.77727e-07
1.65859e-29
8.06357e-24
3.38614e-18
9.71997e-13
1.77727e-07
1.65864e-29
8.06376e-24
3.38621e-18
9.72013e-13
1.77729e-07
1.65868e-29
8.06394e-24
3.38627e-18
9.7203e-13
1.77732e-07
1.65896e-29
8.06497e-24
3.38659e-18
9.72088e-13
1.77738e-07
1.65907e-29
8.0654e-24
3.38673e-18
9.72117e-13
1.77741e-07
1.65982e-29
8.0679e-24
3.38725e-18
9.72084e-13
1.77707e-07
1.65979e-29
8.06765e-24
3.38708e-18
9.72004e-13
1.77687e-07
1.65311e-29
8.03826e-24
3.37433e-18
9.67878e-13
1.76843e-07
1.65015e-29
8.02614e-24
3.36969e-18
9.66584e-13
1.76607e-07
1.50905e-29
7.45161e-24
3.14832e-18
9.0429e-13
1.65012e-07
2.24432e-29
1.00181e-23
3.81931e-18
9.85363e-13
1.59233e-07
2.44807e-29
1.079e-23
4.09309e-18
1.05518e-12
1.70877e-07
2.45237e-29
1.08064e-23
4.09886e-18
1.05664e-12
1.71114e-07
2.46204e-29
1.08464e-23
4.11487e-18
1.0613e-12
1.71966e-07
2.46209e-29
1.08468e-23
4.1151e-18
1.06139e-12
1.71986e-07
2.461e-29
1.08436e-23
4.11454e-18
1.06145e-12
1.72022e-07
2.46084e-29
1.0843e-23
4.11437e-18
1.06142e-12
1.72018e-07
2.46045e-29
1.08416e-23
4.11399e-18
1.06135e-12
1.72013e-07
2.46038e-29
1.08414e-23
4.11391e-18
1.06133e-12
1.7201e-07
2.46031e-29
1.08412e-23
4.11383e-18
1.06132e-12
1.72008e-07
2.46031e-29
1.08412e-23
4.11383e-18
1.06132e-12
1.72008e-07
2.46038e-29
1.08414e-23
4.11391e-18
1.06133e-12
1.7201e-07
2.46045e-29
1.08416e-23
4.11399e-18
1.06135e-12
1.72013e-07
2.46084e-29
1.0843e-23
4.11437e-18
1.06142e-12
1.72018e-07
2.461e-29
1.08436e-23
4.11454e-18
1.06145e-12
1.72022e-07
2.46209e-29
1.08468e-23
4.1151e-18
1.06139e-12
1.71986e-07
2.46204e-29
1.08464e-23
4.11487e-18
1.0613e-12
1.71966e-07
2.45237e-29
1.08064e-23
4.09886e-18
1.05664e-12
1.71114e-07
2.44807e-29
1.079e-23
4.09309e-18
1.05518e-12
1.70877e-07
2.24432e-29
1.00181e-23
3.81931e-18
9.85363e-13
1.59233e-07
3.18224e-29
1.29937e-23
4.51762e-18
1.05879e-12
1.53466e-07
3.47015e-29
1.40099e-23
4.85074e-18
1.13628e-12
1.65158e-07
3.47628e-29
1.40316e-23
4.85778e-18
1.1379e-12
1.65396e-07
3.49015e-29
1.40854e-23
4.87759e-18
1.14312e-12
1.66255e-07
3.49023e-29
1.40859e-23
4.87789e-18
1.14322e-12
1.66275e-07
3.48875e-29
1.4082e-23
4.87732e-18
1.1433e-12
1.66313e-07
3.48853e-29
1.40813e-23
4.87712e-18
1.14326e-12
1.6631e-07
3.48798e-29
1.40796e-23
4.87668e-18
1.1432e-12
1.66305e-07
3.48789e-29
1.40793e-23
4.87659e-18
1.14317e-12
1.66302e-07
3.4878e-29
1.4079e-23
4.87649e-18
1.14316e-12
1.663e-07
3.4878e-29
1.4079e-23
4.87649e-18
1.14316e-12
1.663e-07
3.48789e-29
1.40793e-23
4.87659e-18
1.14317e-12
1.66302e-07
3.48798e-29
1.40796e-23
4.87668e-18
1.1432e-12
1.66305e-07
3.48853e-29
1.40813e-23
4.87712e-18
1.14326e-12
1.6631e-07
3.48875e-29
1.4082e-23
4.87732e-18
1.1433e-12
1.66313e-07
3.49023e-29
1.40859e-23
4.87789e-18
1.14322e-12
1.66275e-07
3.49015e-29
1.40854e-23
4.87759e-18
1.14312e-12
1.66255e-07
3.47628e-29
1.40316e-23
4.85778e-18
1.1379e-12
1.65396e-07
3.47015e-29
1.40099e-23
4.85074e-18
1.13628e-12
1.65158e-07
3.18224e-29
1.29937e-23
4.51762e-18
1.05879e-12
1.53466e-07
4.34e-29
1.63617e-23
5.23271e-18
1.1245e-12
1.47697e-07
4.73924e-29
1.76769e-23
5.6325e-18
1.20979e-12
1.59436e-07
4.74778e-29
1.77051e-23
5.64098e-18
1.21157e-12
1.59676e-07
4.76748e-29
1.77763e-23
5.66516e-18
1.21737e-12
1.60541e-07
4.76762e-29
1.77771e-23
5.66554e-18
1.21748e-12
1.60561e-07
4.76572e-29
1.77725e-23
5.665e-18
1.21758e-12
1.60601e-07
4.76542e-29
1.77716e-23
5.66477e-18
1.21755e-12
1.60597e-07
4.76469e-29
1.77695e-23
5.66427e-18
1.21748e-12
1.60593e-07
4.76457e-29
1.77691e-23
5.66416e-18
1.21745e-12
1.6059e-07
4.76444e-29
1.77687e-23
5.66405e-18
1.21743e-12
1.60587e-07
4.76444e-29
1.77687e-23
5.66405e-18
1.21743e-12
1.60587e-07
4.76457e-29
1.77691e-23
5.66416e-18
1.21745e-12
1.6059e-07
4.76469e-29
1.77695e-23
5.66427e-18
1.21748e-12
1.60593e-07
4.76542e-29
1.77716e-23
5.66477e-18
1.21755e-12
1.60597e-07
4.76572e-29
1.77725e-23
5.665e-18
1.21758e-12
1.60601e-07
4.76762e-29
1.77771e-23
5.66554e-18
1.21748e-12
1.60561e-07
4.76748e-29
1.77763e-23
5.66516e-18
1.21737e-12
1.60541e-07
4.74778e-29
1.77051e-23
5.64098e-18
1.21157e-12
1.59676e-07
4.73924e-29
1.76769e-23
5.6325e-18
1.20979e-12
1.59436e-07
4.34e-29
1.63617e-23
5.23271e-18
1.1245e-12
1.47697e-07
-6.02594e-09
-2.40022e-10
-1.90601e-12
-3.06901e-15
-7.95535e-19
1.10155e-19
1.10591e-19
1.10617e-19
1.10624e-19
1.10626e-19
1.10634e-19
1.10647e-19
1.10743e-19
1.10892e-19
1.12297e-19
1.13748e-19
1.30237e-19
1.40549e-19
4.05005e-19
4.76318e-19
-7.02506e-09
-2.80883e-10
-2.27874e-12
-3.75582e-15
-1.02693e-18
1.10137e-19
1.10589e-19
1.10616e-19
1.10623e-19
1.10623e-19
1.10623e-19
1.10635e-19
1.10732e-19
1.10882e-19
1.12304e-19
1.13768e-19
1.30412e-19
1.40781e-19
4.07568e-19
4.79396e-19
-7.05259e-09
-2.81869e-10
-2.2864e-12
-3.76868e-15
-1.0311e-18
1.10136e-19
1.10589e-19
1.10616e-19
1.10623e-19
1.10623e-19
1.10623e-19
1.10635e-19
1.10733e-19
1.10884e-19
1.12305e-19
1.13769e-19
1.30416e-19
1.40786e-19
4.07592e-19
4.79421e-19
-7.14563e-09
-2.85165e-10
-2.31063e-12
-3.80709e-15
-1.04304e-18
1.10136e-19
1.1059e-19
1.10616e-19
1.10623e-19
1.10623e-19
1.10625e-19
1.10638e-19
1.10736e-19
1.10887e-19
1.1231e-19
1.13774e-19
1.30426e-19
1.40797e-19
4.07653e-19
4.79478e-19
-7.14878e-09
-2.85263e-10
-2.31127e-12
-3.80802e-15
-1.04331e-18
1.10136e-19
1.1059e-19
1.10616e-19
1.10623e-19
1.10623e-19
1.10625e-19
1.10639e-19
1.10736e-19
1.10887e-19
1.1231e-19
1.13775e-19
1.30427e-19
1.40798e-19
4.07655e-19
4.79479e-19
-7.15498e-09
-2.85441e-10
-2.31238e-12
-3.80953e-15
-1.04374e-18
1.10136e-19
1.1059e-19
1.10616e-19
1.10623e-19
1.10623e-19
1.10625e-19
1.10639e-19
1.10736e-19
1.10887e-19
1.1231e-19
1.13775e-19
1.30427e-19
1.40798e-19
4.07656e-19
4.7948e-19
-7.15502e-09
-2.85436e-10
-2.31231e-12
-3.80939e-15
-1.04369e-18
1.10136e-19
1.1059e-19
1.10616e-19
1.10623e-19
1.10623e-19
1.10625e-19
1.10639e-19
1.10736e-19
1.10887e-19
1.1231e-19
1.13775e-19
1.30427e-19
1.40798e-19
4.07656e-19
4.7948e-19
-7.15517e-09
-2.8543e-10
-2.31221e-12
-3.8092e-15
-1.04363e-18
1.10136e-19
1.1059e-19
1.10616e-19
1.10623e-19
1.10623e-19
1.10625e-19
1.10639e-19
1.10737e-19
1.10887e-19
1.1231e-19
1.13775e-19
1.30427e-19
1.40798e-19
4.07656e-19
4.7948e-19
-7.15501e-09
-2.85422e-10
-2.31215e-12
-3.80908e-15
-1.04359e-18
1.10136e-19
1.1059e-19
1.10616e-19
1.10623e-19
1.10623e-19
1.10625e-19
1.10639e-19
1.10737e-19
1.10887e-19
1.1231e-19
1.13775e-19
1.30427e-19
1.40798e-19
4.07656e-19
4.7948e-19
-7.15489e-09
-2.85416e-10
-2.31209e-12
-3.80899e-15
-1.04356e-18
1.10136e-19
1.1059e-19
1.10616e-19
1.10623e-19
1.10623e-19
1.10625e-19
1.10639e-19
1.10737e-19
1.10887e-19
1.1231e-19
1.13775e-19
1.30427e-19
1.40798e-19
4.07656e-19
4.7948e-19
-7.15489e-09
-2.85416e-10
-2.31209e-12
-3.80899e-15
-1.04356e-18
1.10136e-19
1.1059e-19
1.10616e-19
1.10623e-19
1.10623e-19
1.10625e-19
1.10639e-19
1.10737e-19
1.10887e-19
1.1231e-19
1.13775e-19
1.30427e-19
1.40798e-19
4.07656e-19
4.7948e-19
-7.15501e-09
-2.85422e-10
-2.31215e-12
-3.80908e-15
-1.04359e-18
1.10136e-19
1.1059e-19
1.10616e-19
1.10623e-19
1.10623e-19
1.10625e-19
1.10639e-19
1.10737e-19
1.10887e-19
1.1231e-19
1.13775e-19
1.30427e-19
1.40798e-19
4.07656e-19
4.7948e-19
-7.15517e-09
-2.8543e-10
-2.31221e-12
-3.8092e-15
-1.04363e-18
1.10136e-19
1.1059e-19
1.10616e-19
1.10623e-19
1.10623e-19
1.10625e-19
1.10639e-19
1.10737e-19
1.10887e-19
1.1231e-19
1.13775e-19
1.30427e-19
1.40798e-19
4.07656e-19
4.7948e-19
-7.15502e-09
-2.85436e-10
-2.31231e-12
-3.80939e-15
-1.04369e-18
1.10136e-19
1.1059e-19
1.10616e-19
1.10623e-19
1.10623e-19
1.10625e-19
1.10639e-19
1.10736e-19
1.10887e-19
1.1231e-19
1.13775e-19
1.30427e-19
1.40798e-19
4.07656e-19
4.7948e-19
-7.15498e-09
-2.85441e-10
-2.31238e-12
-3.80953e-15
-1.04374e-18
1.10136e-19
1.1059e-19
1.10616e-19
1.10623e-19
1.10623e-19
1.10625e-19
1.10639e-19
1.10736e-19
1.10887e-19
1.1231e-19
1.13775e-19
1.30427e-19
1.40798e-19
4.07656e-19
4.7948e-19
-7.14878e-09
-2.85263e-10
-2.31127e-12
-3.80802e-15
-1.04331e-18
1.10136e-19
1.1059e-19
1.10616e-19
1.10623e-19
1.10623e-19
1.10625e-19
1.10639e-19
1.10736e-19
1.10887e-19
1.1231e-19
1.13775e-19
1.30427e-19
1.40798e-19
4.07655e-19
4.79479e-19
-7.14563e-09
-2.85165e-10
-2.31063e-12
-3.80709e-15
-1.04304e-18
1.10136e-19
1.1059e-19
1.10616e-19
1.10623e-19
1.10623e-19
1.10625e-19
1.10638e-19
1.10736e-19
1.10887e-19
1.1231e-19
1.13774e-19
1.30426e-19
1.40797e-19
4.07653e-19
4.79478e-19
-7.05259e-09
-2.81869e-10
-2.2864e-12
-3.76868e-15
-1.0311e-18
1.10136e-19
1.10589e-19
1.10616e-19
1.10623e-19
1.10623e-19
1.10623e-19
1.10635e-19
1.10733e-19
1.10884e-19
1.12305e-19
1.13769e-19
1.30416e-19
1.40786e-19
4.07592e-19
4.79421e-19
-7.02506e-09
-2.80883e-10
-2.27874e-12
-3.75582e-15
-1.02693e-18
1.10137e-19
1.10589e-19
1.10616e-19
1.10623e-19
1.10623e-19
1.10623e-19
1.10635e-19
1.10732e-19
1.10882e-19
1.12304e-19
1.13768e-19
1.30412e-19
1.40781e-19
4.07568e-19
4.79396e-19
-6.02594e-09