/*--------------------------------*- C++ -*----------------------------------*\
  =========                 |
  \\      /  F ield         | OpenFOAM: The Open Source CFD Toolbox
   \\    /   O peration     | Website:  https://openfoam.org
    \\  /    A nd           | Version:  8
     \\/     M anipulation  |
\*---------------------------------------------------------------------------*/
FoamFile
{
    version     2.0;
    format      ascii;
    class       volScalarField;
    location    "0.9";
    object      p;
}
// * * * * * * * * * * * * * * * * * * * * * * * * * * * * * * * * * * * * * //

dimensions      [0 2 -2 0 0 0 0];

internalField   nonuniform List<scalar> 
180000
(
0.0012478
0.00116037
0.00122822
0.00101721
0.00113963
0.00123432
0.00114721
0.00121476
0.00100533
0.00112641
0.001234
0.00114691
0.00121444
0.00100507
0.00112611
0.00123218
0.00114513
0.00121264
0.00100352
0.00112443
0.0012321
0.00114505
0.00121256
0.00100346
0.00112436
0.00123179
0.00114475
0.00121225
0.00100319
0.00112407
0.00123178
0.00114473
0.00121224
0.00100318
0.00112406
0.00123173
0.00114469
0.0012122
0.00100314
0.00112402
0.00123174
0.00114469
0.0012122
0.00100314
0.00112402
0.00123173
0.00114469
0.0012122
0.00100314
0.00112401
0.00123173
0.00114469
0.0012122
0.00100314
0.00112401
0.00123174
0.00114469
0.0012122
0.00100314
0.00112402
0.00123173
0.00114469
0.0012122
0.00100314
0.00112402
0.00123178
0.00114473
0.00121224
0.00100318
0.00112406
0.00123179
0.00114475
0.00121225
0.00100319
0.00112407
0.0012321
0.00114505
0.00121256
0.00100346
0.00112436
0.00123218
0.00114513
0.00121264
0.00100352
0.00112443
0.001234
0.00114691
0.00121444
0.00100507
0.00112611
0.00123432
0.00114721
0.00121476
0.00100533
0.00112641
0.0012478
0.00116037
0.00122822
0.00101721
0.00113963
0.000815715
0.00080786
0.000814997
0.00077641
0.000805489
0.000815028
0.000805984
0.000814025
0.000772799
0.000803284
0.000815012
0.000805941
0.000814003
0.000772721
0.000803236
0.00081488
0.000805651
0.000813839
0.000772217
0.000802919
0.000814875
0.000805639
0.000813832
0.000772197
0.000802906
0.000814849
0.000805586
0.000813801
0.000772107
0.000802849
0.000814848
0.000805584
0.000813799
0.000772103
0.000802847
0.000814843
0.000805575
0.000813794
0.000772089
0.000802837
0.000814843
0.000805575
0.000813794
0.000772089
0.000802837
0.000814843
0.000805574
0.000813794
0.000772087
0.000802837
0.000814843
0.000805574
0.000813794
0.000772087
0.000802837
0.000814843
0.000805575
0.000813794
0.000772089
0.000802837
0.000814843
0.000805575
0.000813794
0.000772089
0.000802837
0.000814848
0.000805584
0.000813799
0.000772103
0.000802847
0.000814849
0.000805586
0.000813801
0.000772107
0.000802849
0.000814875
0.000805639
0.000813832
0.000772197
0.000802906
0.00081488
0.000805651
0.000813839
0.000772217
0.000802919
0.000815012
0.000805941
0.000814003
0.000772721
0.000803236
0.000815028
0.000805984
0.000814025
0.000772799
0.000803284
0.000815715
0.00080786
0.000814997
0.00077641
0.000805489
0.000612029
0.000598712
0.000610414
0.000563847
0.000598728
0.000610416
0.000596206
0.000608623
0.000560498
0.000596015
0.00061038
0.000596149
0.000608582
0.000560426
0.000595956
0.000610121
0.000595762
0.000608291
0.000559945
0.000595561
0.000610111
0.000595746
0.000608279
0.000559926
0.000595545
0.000610062
0.000595675
0.000608225
0.000559839
0.000595473
0.00061006
0.000595673
0.000608223
0.000559836
0.00059547
0.000610052
0.000595661
0.000608214
0.000559821
0.000595459
0.000610052
0.000595661
0.000608214
0.000559821
0.000595459
0.000610051
0.00059566
0.000608213
0.00055982
0.000595458
0.000610051
0.00059566
0.000608213
0.00055982
0.000595458
0.000610052
0.000595661
0.000608214
0.000559821
0.000595459
0.000610052
0.000595661
0.000608214
0.000559821
0.000595459
0.00061006
0.000595673
0.000608223
0.000559836
0.00059547
0.000610062
0.000595675
0.000608225
0.000559839
0.000595473
0.000610111
0.000595746
0.000608279
0.000559926
0.000595545
0.000610121
0.000595762
0.000608291
0.000559945
0.000595561
0.00061038
0.000596149
0.000608582
0.000560426
0.000595956
0.000610416
0.000596206
0.000608623
0.000560498
0.000596015
0.000612029
0.000598712
0.000610414
0.000563847
0.000598728
0.000626551
0.000596071
0.000621134
0.000540851
0.000596251
0.000622058
0.000591399
0.000616589
0.000536244
0.000591535
0.000621952
0.000591292
0.000616483
0.000536145
0.00059143
0.000621291
0.000590601
0.000615818
0.000535487
0.000590767
0.000621265
0.000590574
0.000615791
0.000535461
0.00059074
0.000621146
0.00059045
0.000615672
0.000535342
0.000590621
0.000621142
0.000590445
0.000615667
0.000535337
0.000590617
0.000621123
0.000590425
0.000615649
0.000535318
0.000590598
0.000621124
0.000590426
0.000615649
0.000535318
0.000590598
0.000621122
0.000590424
0.000615648
0.000535317
0.000590597
0.000621122
0.000590424
0.000615648
0.000535317
0.000590597
0.000621124
0.000590426
0.000615649
0.000535318
0.000590598
0.000621123
0.000590425
0.000615649
0.000535318
0.000590598
0.000621142
0.000590445
0.000615667
0.000535337
0.000590617
0.000621146
0.00059045
0.000615672
0.000535342
0.000590621
0.000621265
0.000590574
0.000615791
0.000535461
0.00059074
0.000621291
0.000590601
0.000615818
0.000535487
0.000590767
0.000621952
0.000591292
0.000616483
0.000536145
0.00059143
0.000622058
0.000591399
0.000616589
0.000536244
0.000591535
0.000626551
0.000596071
0.000621134
0.000540851
0.000596251
0.000657349
0.000625423
0.000652017
0.00056725
0.000628518
0.000652674
0.000620571
0.000647278
0.000562436
0.000623673
0.000652563
0.000620458
0.000647166
0.000562331
0.000623564
0.000651857
0.000619725
0.000646457
0.000561629
0.000622864
0.000651829
0.000619696
0.000646428
0.000561601
0.000622836
0.000651702
0.000619563
0.000646301
0.000561474
0.00062271
0.000651697
0.000619558
0.000646296
0.000561469
0.000622705
0.000651677
0.000619537
0.000646276
0.000561448
0.000622685
0.000651677
0.000619537
0.000646276
0.000561448
0.000622685
0.000651676
0.000619536
0.000646275
0.000561446
0.000622683
0.000651676
0.000619536
0.000646275
0.000561446
0.000622683
0.000651677
0.000619537
0.000646276
0.000561448
0.000622685
0.000651677
0.000619537
0.000646276
0.000561448
0.000622685
0.000651697
0.000619558
0.000646296
0.000561469
0.000622705
0.000651702
0.000619563
0.000646301
0.000561474
0.00062271
0.000651829
0.000619696
0.000646428
0.000561601
0.000622836
0.000651857
0.000619725
0.000646457
0.000561629
0.000622864
0.000652563
0.000620458
0.000647166
0.000562331
0.000623564
0.000652674
0.000620571
0.000647278
0.000562436
0.000623673
0.000657349
0.000625423
0.000652017
0.00056725
0.000628518
0.000663317
0.000634139
0.000659057
0.000579011
0.000641495
0.000659135
0.000629679
0.000654793
0.000574444
0.000637069
0.000659034
0.000629574
0.000654691
0.000574344
0.000636968
0.000658377
0.000628876
0.000654028
0.000573656
0.000636301
0.000658351
0.000628848
0.000654001
0.000573629
0.000636274
0.000658231
0.000628721
0.00065388
0.000573503
0.000636152
0.000658226
0.000628716
0.000653875
0.000573498
0.000636147
0.000658207
0.000628695
0.000653856
0.000573478
0.000636128
0.000658207
0.000628695
0.000653856
0.000573478
0.000636128
0.000658206
0.000628693
0.000653854
0.000573476
0.000636126
0.000658206
0.000628693
0.000653854
0.000573476
0.000636126
0.000658207
0.000628695
0.000653856
0.000573478
0.000636128
0.000658207
0.000628695
0.000653856
0.000573478
0.000636127
0.000658226
0.000628716
0.000653875
0.000573498
0.000636147
0.000658231
0.000628721
0.00065388
0.000573503
0.000636152
0.000658351
0.000628848
0.000654001
0.000573629
0.000636274
0.000658377
0.000628876
0.000654028
0.000573656
0.000636301
0.000659034
0.000629574
0.000654691
0.000574344
0.000636968
0.000659135
0.000629679
0.000654793
0.000574444
0.000637069
0.000663317
0.000634139
0.000659057
0.000579011
0.000641495
0.000658966
0.000631177
0.00065542
0.000578053
0.000642946
0.000655029
0.000626948
0.000651406
0.000573684
0.000638786
0.000654934
0.000626848
0.00065131
0.000573587
0.00063869
0.000654294
0.000626165
0.000650663
0.000572909
0.000638037
0.000654269
0.000626138
0.000650637
0.000572883
0.000638011
0.00065415
0.000626012
0.000650518
0.000572758
0.000637891
0.000654146
0.000626007
0.000650513
0.000572753
0.000637886
0.000654127
0.000625986
0.000650494
0.000572732
0.000637866
0.000654127
0.000625986
0.000650494
0.000572732
0.000637866
0.000654125
0.000625984
0.000650492
0.00057273
0.000637865
0.000654125
0.000625984
0.000650492
0.00057273
0.000637865
0.000654127
0.000625986
0.000650494
0.000572732
0.000637866
0.000654127
0.000625986
0.000650494
0.000572732
0.000637866
0.000654146
0.000626007
0.000650513
0.000572753
0.000637886
0.00065415
0.000626012
0.000650518
0.000572758
0.000637891
0.000654269
0.000626138
0.000650637
0.000572883
0.000638011
0.000654294
0.000626165
0.000650663
0.000572909
0.000638037
0.000654934
0.000626848
0.00065131
0.000573587
0.00063869
0.000655029
0.000626948
0.000651406
0.000573684
0.000638786
0.000658966
0.000631177
0.00065542
0.000578053
0.000642946
0.000655491
0.000627945
0.000652374
0.000575478
0.000643788
0.000651608
0.000623791
0.000648426
0.000571204
0.00063974
0.000651514
0.000623694
0.000648332
0.000571109
0.000639646
0.000650868
0.000623006
0.000647679
0.000570428
0.00063899
0.000650842
0.000622979
0.000647653
0.000570402
0.000638963
0.000650721
0.000622851
0.000647531
0.000570276
0.000638841
0.000650716
0.000622846
0.000647526
0.000570271
0.000638836
0.000650697
0.000622824
0.000647506
0.000570249
0.000638816
0.000650697
0.000622824
0.000647507
0.000570249
0.000638816
0.000650695
0.000622822
0.000647505
0.000570247
0.000638814
0.000650695
0.000622822
0.000647505
0.000570247
0.000638814
0.000650697
0.000622824
0.000647507
0.000570249
0.000638816
0.000650697
0.000622824
0.000647506
0.000570249
0.000638816
0.000650716
0.000622846
0.000647526
0.000570271
0.000638836
0.000650721
0.000622851
0.000647531
0.000570276
0.000638841
0.000650842
0.000622979
0.000647653
0.000570402
0.000638963
0.000650868
0.000623006
0.000647679
0.000570428
0.00063899
0.000651514
0.000623694
0.000648332
0.000571109
0.000639646
0.000651608
0.000623791
0.000648426
0.000571204
0.00063974
0.000655491
0.000627945
0.000652374
0.000575478
0.000643788
0.000654035
0.000626606
0.000651315
0.000574627
0.000646025
0.000650192
0.000622508
0.000647413
0.000570421
0.000642058
0.000650098
0.000622411
0.000647319
0.000570328
0.000641964
0.000649443
0.000621717
0.000646659
0.000569642
0.000641301
0.000649417
0.00062169
0.000646633
0.000569616
0.000641275
0.000649293
0.000621559
0.000646508
0.000569487
0.000641151
0.000649288
0.000621554
0.000646503
0.000569482
0.000641146
0.000649268
0.000621532
0.000646483
0.00056946
0.000641125
0.000649268
0.000621532
0.000646483
0.00056946
0.000641125
0.000649266
0.00062153
0.000646481
0.000569458
0.000641123
0.000649266
0.00062153
0.000646481
0.000569458
0.000641123
0.000649268
0.000621532
0.000646483
0.00056946
0.000641125
0.000649268
0.000621532
0.000646483
0.00056946
0.000641125
0.000649288
0.000621554
0.000646503
0.000569482
0.000641146
0.000649293
0.000621559
0.000646508
0.000569487
0.000641151
0.000649417
0.00062169
0.000646633
0.000569616
0.000641275
0.000649443
0.000621717
0.000646659
0.000569642
0.000641301
0.000650098
0.000622411
0.000647319
0.000570328
0.000641964
0.000650192
0.000622508
0.000647413
0.000570421
0.000642058
0.000654035
0.000626606
0.000651315
0.000574627
0.000646025
0.000653109
0.000625952
0.000650813
0.000574716
0.000648398
0.000649331
0.000621929
0.000646982
0.000570587
0.00064451
0.000649238
0.000621833
0.00064689
0.000570495
0.000644418
0.000648578
0.000621135
0.000646225
0.000569806
0.000643751
0.000648552
0.000621108
0.000646199
0.000569779
0.000643724
0.000648427
0.000620976
0.000646072
0.000569649
0.000643598
0.000648422
0.00062097
0.000646067
0.000569644
0.000643593
0.000648401
0.000620948
0.000646046
0.000569622
0.000643571
0.000648401
0.000620948
0.000646046
0.000569622
0.000643571
0.000648399
0.000620946
0.000646044
0.000569619
0.000643569
0.000648399
0.000620946
0.000646044
0.000569619
0.000643569
0.000648401
0.000620948
0.000646046
0.000569622
0.000643571
0.000648401
0.000620948
0.000646046
0.000569622
0.000643571
0.000648422
0.00062097
0.000646067
0.000569644
0.000643593
0.000648427
0.000620976
0.000646072
0.000569649
0.000643598
0.000648552
0.000621108
0.000646199
0.000569779
0.000643724
0.000648578
0.000621135
0.000646225
0.000569806
0.000643751
0.000649238
0.000621833
0.00064689
0.000570495
0.000644418
0.000649331
0.000621929
0.000646982
0.000570587
0.00064451
0.000653109
0.000625952
0.000650813
0.000574716
0.000648398
0.000652031
0.000625212
0.000650161
0.000574887
0.000649959
0.000648327
0.000621271
0.000646411
0.000570839
0.000646134
0.000648236
0.000621177
0.00064632
0.000570748
0.000646043
0.000647574
0.000620477
0.000645653
0.000570057
0.00064537
0.000647548
0.00062045
0.000645626
0.00057003
0.000645344
0.00064742
0.000620316
0.000645498
0.000569899
0.000645215
0.000647415
0.000620311
0.000645493
0.000569894
0.00064521
0.000647394
0.000620288
0.000645472
0.000569871
0.000645188
0.000647394
0.000620288
0.000645472
0.000569871
0.000645188
0.000647391
0.000620285
0.000645469
0.000569868
0.000645186
0.000647391
0.000620285
0.000645469
0.000569868
0.000645186
0.000647394
0.000620288
0.000645472
0.000569871
0.000645188
0.000647394
0.000620288
0.000645472
0.000569871
0.000645188
0.000647415
0.000620311
0.000645493
0.000569894
0.00064521
0.00064742
0.000620316
0.000645498
0.000569899
0.000645215
0.000647548
0.00062045
0.000645626
0.00057003
0.000645344
0.000647574
0.000620477
0.000645653
0.000570057
0.00064537
0.000648236
0.000621177
0.00064632
0.000570748
0.000646043
0.000648327
0.000621271
0.000646411
0.000570839
0.000646134
0.000652031
0.000625212
0.000650161
0.000574887
0.000649959
0.000650828
0.000624337
0.000649369
0.000574915
0.000648005
0.000647197
0.000620476
0.000645697
0.000570947
0.000644243
0.000647108
0.000620384
0.000645607
0.000570858
0.000644153
0.000646443
0.000619682
0.000644938
0.000570165
0.000643477
0.000646417
0.000619655
0.000644912
0.000570138
0.000643451
0.000646288
0.00061952
0.000644782
0.000570006
0.000643321
0.000646283
0.000619514
0.000644777
0.00057
0.000643315
0.00064626
0.000619491
0.000644754
0.000569977
0.000643293
0.00064626
0.000619491
0.000644754
0.000569977
0.000643293
0.000646258
0.000619488
0.000644752
0.000569974
0.00064329
0.000646258
0.000619488
0.000644752
0.000569974
0.00064329
0.00064626
0.000619491
0.000644754
0.000569977
0.000643293
0.00064626
0.000619491
0.000644754
0.000569977
0.000643293
0.000646283
0.000619514
0.000644777
0.00057
0.000643315
0.000646288
0.00061952
0.000644782
0.000570006
0.000643321
0.000646417
0.000619655
0.000644912
0.000570138
0.000643451
0.000646443
0.000619682
0.000644938
0.000570165
0.000643477
0.000647108
0.000620384
0.000645607
0.000570858
0.000644153
0.000647197
0.000620476
0.000645697
0.000570947
0.000644243
0.000650828
0.000624337
0.000649369
0.000574915
0.000648005
0.000649628
0.000623442
0.00064856
0.000574798
0.000645057
0.000646065
0.000619659
0.000644962
0.000570908
0.000641358
0.000645977
0.000619568
0.000644874
0.000570821
0.000641269
0.00064531
0.000618865
0.000644202
0.000570126
0.000640592
0.000645284
0.000618838
0.000644176
0.000570099
0.000640565
0.000645153
0.000618701
0.000644045
0.000569965
0.000640433
0.000645148
0.000618695
0.000644039
0.00056996
0.000640428
0.000645125
0.000618671
0.000644017
0.000569936
0.000640405
0.000645125
0.000618671
0.000644016
0.000569936
0.000640405
0.000645123
0.000618669
0.000644014
0.000569933
0.000640402
0.000645123
0.000618669
0.000644014
0.000569933
0.000640402
0.000645125
0.000618671
0.000644016
0.000569936
0.000640405
0.000645125
0.000618671
0.000644017
0.000569936
0.000640405
0.000645148
0.000618695
0.000644039
0.00056996
0.000640428
0.000645153
0.000618701
0.000644045
0.000569965
0.000640433
0.000645284
0.000618838
0.000644176
0.000570099
0.000640565
0.00064531
0.000618865
0.000644202
0.000570126
0.000640592
0.000645977
0.000619568
0.000644874
0.000570821
0.000641269
0.000646065
0.000619659
0.000644962
0.000570908
0.000641358
0.000649628
0.000623442
0.00064856
0.000574798
0.000645057
0.000648464
0.000622575
0.000647773
0.000574577
0.000642398
0.000644969
0.000618866
0.000644247
0.000570764
0.000638761
0.000644882
0.000618777
0.000644161
0.000570678
0.000638674
0.000644212
0.000618073
0.000643487
0.000569982
0.000637995
0.000644186
0.000618046
0.000643461
0.000569955
0.000637968
0.000644054
0.000617907
0.000643328
0.00056982
0.000637835
0.000644049
0.000617902
0.000643323
0.000569815
0.00063783
0.000644025
0.000617878
0.0006433
0.000569791
0.000637806
0.000644025
0.000617877
0.000643299
0.00056979
0.000637806
0.000644023
0.000617875
0.000643297
0.000569788
0.000637803
0.000644023
0.000617875
0.000643297
0.000569788
0.000637803
0.000644025
0.000617877
0.000643299
0.00056979
0.000637806
0.000644025
0.000617878
0.0006433
0.000569791
0.000637806
0.000644049
0.000617902
0.000643323
0.000569815
0.00063783
0.000644054
0.000617907
0.000643328
0.00056982
0.000637835
0.000644186
0.000618046
0.000643461
0.000569955
0.000637968
0.000644212
0.000618073
0.000643487
0.000569982
0.000637995
0.000644882
0.000618777
0.000644161
0.000570678
0.000638674
0.000644969
0.000618866
0.000644247
0.000570764
0.000638761
0.000648464
0.000622575
0.000647773
0.000574577
0.000642398
0.000647328
0.000621731
0.000647003
0.000574269
0.000640024
0.000643898
0.000618095
0.000643547
0.000570531
0.000636448
0.000643813
0.000618008
0.000643462
0.000570446
0.000636363
0.000643141
0.000617302
0.000642787
0.000569749
0.000635683
0.000643115
0.000617275
0.000642761
0.000569723
0.000635656
0.000642981
0.000617136
0.000642627
0.000569587
0.000635521
0.000642976
0.00061713
0.000642621
0.000569581
0.000635516
0.000642952
0.000617105
0.000642597
0.000569557
0.000635492
0.000642952
0.000617105
0.000642597
0.000569556
0.000635491
0.000642949
0.000617102
0.000642594
0.000569554
0.000635489
0.000642949
0.000617102
0.000642594
0.000569554
0.000635489
0.000642952
0.000617105
0.000642597
0.000569556
0.000635491
0.000642952
0.000617105
0.000642597
0.000569557
0.000635492
0.000642976
0.00061713
0.000642621
0.000569581
0.000635516
0.000642981
0.000617136
0.000642627
0.000569587
0.000635521
0.000643115
0.000617275
0.000642761
0.000569723
0.000635656
0.000643141
0.000617302
0.000642787
0.000569749
0.000635683
0.000643813
0.000618008
0.000643462
0.000570446
0.000636363
0.000643898
0.000618095
0.000643547
0.000570531
0.000636448
0.000647328
0.000621731
0.000647003
0.000574269
0.000640024
0.000646209
0.000620901
0.00064624
0.000573873
0.000637713
0.000642843
0.000617336
0.000642853
0.000570209
0.000634198
0.000642759
0.00061725
0.00064277
0.000570126
0.000634114
0.000642086
0.000616544
0.000642094
0.000569429
0.000633433
0.000642061
0.000616517
0.000642068
0.000569403
0.000633406
0.000641925
0.000616376
0.000641932
0.000569265
0.00063327
0.00064192
0.000616371
0.000641926
0.00056926
0.000633265
0.000641896
0.000616346
0.000641902
0.000569235
0.00063324
0.000641895
0.000616345
0.000641902
0.000569235
0.00063324
0.000641893
0.000616342
0.000641899
0.000569232
0.000633237
0.000641893
0.000616342
0.000641899
0.000569232
0.000633237
0.000641895
0.000616345
0.000641902
0.000569235
0.00063324
0.000641896
0.000616346
0.000641902
0.000569235
0.00063324
0.00064192
0.000616371
0.000641926
0.00056926
0.000633265
0.000641925
0.000616376
0.000641932
0.000569265
0.00063327
0.000642061
0.000616517
0.000642068
0.000569403
0.000633406
0.000642086
0.000616544
0.000642094
0.000569429
0.000633433
0.000642759
0.00061725
0.00064277
0.000570126
0.000634114
0.000642843
0.000617336
0.000642853
0.000570209
0.000634198
0.000646209
0.000620901
0.00064624
0.000573873
0.000637713
0.000645106
0.00062008
0.000645483
0.000573389
0.000635394
0.000641803
0.000616586
0.000642165
0.000569798
0.000631936
0.000641721
0.000616502
0.000642083
0.000569717
0.000631854
0.000641047
0.000615795
0.000641406
0.00056902
0.000631173
0.000641021
0.000615769
0.00064138
0.000568994
0.000631147
0.000640884
0.000615626
0.000641243
0.000568855
0.000631009
0.000640879
0.000615621
0.000641238
0.00056885
0.000631003
0.000640854
0.000615595
0.000641213
0.000568825
0.000630978
0.000640854
0.000615595
0.000641212
0.000568824
0.000630978
0.000640851
0.000615592
0.000641209
0.000568821
0.000630975
0.000640851
0.000615592
0.000641209
0.000568821
0.000630975
0.000640854
0.000615595
0.000641212
0.000568824
0.000630978
0.000640854
0.000615595
0.000641213
0.000568825
0.000630978
0.000640879
0.000615621
0.000641238
0.00056885
0.000631003
0.000640884
0.000615626
0.000641243
0.000568855
0.000631009
0.000641021
0.000615769
0.00064138
0.000568994
0.000631147
0.000641047
0.000615795
0.000641406
0.00056902
0.000631173
0.000641721
0.000616502
0.000642083
0.000569717
0.000631854
0.000641803
0.000616586
0.000642165
0.000569798
0.000631936
0.000645106
0.00062008
0.000645483
0.000573389
0.000635394
0.000644019
0.000619272
0.000644736
0.000572818
0.000633081
0.000640778
0.000615845
0.000641484
0.000569299
0.000629681
0.000640697
0.000615763
0.000641404
0.000569219
0.0006296
0.000640022
0.000615056
0.000640726
0.000568523
0.000628919
0.000639996
0.00061503
0.000640701
0.000568497
0.000628893
0.000639858
0.000614887
0.000640562
0.000568358
0.000628754
0.000639853
0.000614881
0.000640557
0.000568352
0.000628748
0.000639828
0.000614855
0.000640531
0.000568327
0.000628723
0.000639827
0.000614854
0.000640531
0.000568326
0.000628723
0.000639824
0.000614851
0.000640528
0.000568323
0.00062872
0.000639824
0.000614851
0.000640528
0.000568323
0.00062872
0.000639827
0.000614854
0.000640531
0.000568326
0.000628723
0.000639828
0.000614855
0.000640531
0.000568327
0.000628723
0.000639853
0.000614881
0.000640557
0.000568352
0.000628748
0.000639858
0.000614887
0.000640562
0.000568358
0.000628754
0.000639996
0.00061503
0.000640701
0.000568497
0.000628893
0.000640022
0.000615056
0.000640726
0.000568523
0.000628919
0.000640697
0.000615763
0.000641404
0.000569219
0.0006296
0.000640778
0.000615845
0.000641484
0.000569299
0.000629681
0.000644019
0.000619272
0.000644736
0.000572818
0.000633081
0.000642949
0.000618475
0.000644
0.000572162
0.000630794
0.000639768
0.000615115
0.000640813
0.000568714
0.000627449
0.000639689
0.000615034
0.000640734
0.000568636
0.00062737
0.000639013
0.000614328
0.000640056
0.00056794
0.00062669
0.000638988
0.000614302
0.000640031
0.000567915
0.000626664
0.000638848
0.000614158
0.000639891
0.000567774
0.000626524
0.000638843
0.000614152
0.000639885
0.000567769
0.000626518
0.000638817
0.000614125
0.000639859
0.000567743
0.000626492
0.000638817
0.000614125
0.000639859
0.000567742
0.000626492
0.000638814
0.000614122
0.000639856
0.000567739
0.000626488
0.000638814
0.000614122
0.000639856
0.000567739
0.000626488
0.000638817
0.000614125
0.000639859
0.000567742
0.000626492
0.000638817
0.000614125
0.000639859
0.000567743
0.000626492
0.000638843
0.000614152
0.000639885
0.000567769
0.000626518
0.000638848
0.000614158
0.000639891
0.000567774
0.000626524
0.000638988
0.000614302
0.000640031
0.000567915
0.000626664
0.000639013
0.000614328
0.000640056
0.00056794
0.00062669
0.000639689
0.000615034
0.000640734
0.000568636
0.00062737
0.000639768
0.000615115
0.000640813
0.000568714
0.000627449
0.000642949
0.000618475
0.000644
0.000572162
0.000630794
0.000641894
0.00061769
0.000643275
0.000571422
0.000628426
0.000638773
0.000614396
0.000640152
0.000568043
0.000625136
0.000638695
0.000614317
0.000640074
0.000567966
0.000625059
0.00063802
0.000613611
0.000639397
0.000567272
0.00062438
0.000637994
0.000613585
0.000639371
0.000567247
0.000624354
0.000637854
0.000613439
0.00063923
0.000567106
0.000624213
0.000637848
0.000613434
0.000639225
0.0005671
0.000624207
0.000637822
0.000613407
0.000639198
0.000567074
0.000624181
0.000637822
0.000613406
0.000639198
0.000567073
0.00062418
0.000637818
0.000613403
0.000639195
0.00056707
0.000624177
0.000637818
0.000613403
0.000639195
0.00056707
0.000624177
0.000637822
0.000613406
0.000639198
0.000567073
0.00062418
0.000637822
0.000613407
0.000639198
0.000567074
0.000624181
0.000637848
0.000613434
0.000639225
0.0005671
0.000624207
0.000637854
0.000613439
0.00063923
0.000567106
0.000624213
0.000637994
0.000613585
0.000639371
0.000567247
0.000624354
0.00063802
0.000613611
0.000639397
0.000567272
0.00062438
0.000638695
0.000614317
0.000640074
0.000567966
0.000625059
0.000638773
0.000614396
0.000640152
0.000568043
0.000625136
0.000641894
0.00061769
0.000643275
0.000571422
0.000628426
-1.83615e-05
1.98314e-05
4.59174e-06
9.52997e-07
3.00737e-07
1.87042e-07
1.6635e-07
1.62568e-07
1.618e-07
1.61652e-07
1.61613e-07
1.61596e-07
1.61512e-07
1.61412e-07
1.60581e-07
1.59927e-07
1.53536e-07
1.50763e-07
1.12002e-07
1.07875e-07
-1.86142e-05
1.98846e-05
4.66501e-06
9.68832e-07
3.03858e-07
1.87618e-07
1.66447e-07
1.62571e-07
1.61783e-07
1.61632e-07
1.61591e-07
1.61575e-07
1.61489e-07
1.61386e-07
1.60543e-07
1.59881e-07
1.53422e-07
1.50641e-07
1.11706e-07
1.07666e-07
-1.86183e-05
1.98834e-05
4.66577e-06
9.69084e-07
3.03928e-07
1.87633e-07
1.6645e-07
1.62572e-07
1.61783e-07
1.61632e-07
1.61591e-07
1.61574e-07
1.61488e-07
1.61386e-07
1.60542e-07
1.59881e-07
1.5342e-07
1.50639e-07
1.11703e-07
1.07664e-07
-1.864e-05
1.98733e-05
4.66692e-06
9.6966e-07
3.04125e-07
1.87675e-07
1.66459e-07
1.62573e-07
1.61782e-07
1.6163e-07
1.6159e-07
1.61573e-07
1.61487e-07
1.61384e-07
1.6054e-07
1.59878e-07
1.53413e-07
1.50633e-07
1.11691e-07
1.07658e-07
-1.86409e-05
1.98726e-05
4.66689e-06
9.69671e-07
3.04132e-07
1.87677e-07
1.6646e-07
1.62573e-07
1.61782e-07
1.6163e-07
1.6159e-07
1.61573e-07
1.61487e-07
1.61384e-07
1.6054e-07
1.59878e-07
1.53413e-07
1.50633e-07
1.11691e-07
1.07658e-07
-1.8644e-05
1.98705e-05
4.66664e-06
9.69667e-07
3.0414e-07
1.87679e-07
1.66461e-07
1.62573e-07
1.61782e-07
1.6163e-07
1.6159e-07
1.61573e-07
1.61487e-07
1.61384e-07
1.6054e-07
1.59877e-07
1.53413e-07
1.50633e-07
1.11691e-07
1.07658e-07
-1.86441e-05
1.98704e-05
4.66665e-06
9.69669e-07
3.04141e-07
1.8768e-07
1.66461e-07
1.62573e-07
1.61782e-07
1.6163e-07
1.6159e-07
1.61573e-07
1.61487e-07
1.61384e-07
1.6054e-07
1.59877e-07
1.53413e-07
1.50633e-07
1.11691e-07
1.07658e-07
-1.86447e-05
1.98701e-05
4.66664e-06
9.69671e-07
3.04142e-07
1.8768e-07
1.66461e-07
1.62573e-07
1.61782e-07
1.6163e-07
1.6159e-07
1.61573e-07
1.61487e-07
1.61384e-07
1.6054e-07
1.59877e-07
1.53413e-07
1.50633e-07
1.11691e-07
1.07658e-07
-1.86447e-05
1.98701e-05
4.66665e-06
9.69673e-07
3.04142e-07
1.8768e-07
1.66461e-07
1.62573e-07
1.61782e-07
1.6163e-07
1.6159e-07
1.61573e-07
1.61487e-07
1.61384e-07
1.6054e-07
1.59877e-07
1.53413e-07
1.50633e-07
1.11691e-07
1.07658e-07
-1.86448e-05
1.98701e-05
4.66666e-06
9.69675e-07
3.04143e-07
1.8768e-07
1.66461e-07
1.62573e-07
1.61782e-07
1.6163e-07
1.6159e-07
1.61573e-07
1.61487e-07
1.61384e-07
1.6054e-07
1.59877e-07
1.53413e-07
1.50633e-07
1.11691e-07
1.07658e-07
-1.86448e-05
1.98701e-05
4.66666e-06
9.69675e-07
3.04143e-07
1.8768e-07
1.66461e-07
1.62573e-07
1.61782e-07
1.6163e-07
1.6159e-07
1.61573e-07
1.61487e-07
1.61384e-07
1.6054e-07
1.59877e-07
1.53413e-07
1.50633e-07
1.11691e-07
1.07658e-07
-1.86447e-05
1.98701e-05
4.66665e-06
9.69673e-07
3.04142e-07
1.8768e-07
1.66461e-07
1.62573e-07
1.61782e-07
1.6163e-07
1.6159e-07
1.61573e-07
1.61487e-07
1.61384e-07
1.6054e-07
1.59877e-07
1.53413e-07
1.50633e-07
1.11691e-07
1.07658e-07
-1.86447e-05
1.98701e-05
4.66664e-06
9.69671e-07
3.04142e-07
1.8768e-07
1.66461e-07
1.62573e-07
1.61782e-07
1.6163e-07
1.6159e-07
1.61573e-07
1.61487e-07
1.61384e-07
1.6054e-07
1.59877e-07
1.53413e-07
1.50633e-07
1.11691e-07
1.07658e-07
-1.86441e-05
1.98704e-05
4.66665e-06
9.69669e-07
3.04141e-07
1.8768e-07
1.66461e-07
1.62573e-07
1.61782e-07
1.6163e-07
1.6159e-07
1.61573e-07
1.61487e-07
1.61384e-07
1.6054e-07
1.59877e-07
1.53413e-07
1.50633e-07
1.11691e-07
1.07658e-07
-1.8644e-05
1.98705e-05
4.66664e-06
9.69667e-07
3.0414e-07
1.87679e-07
1.66461e-07
1.62573e-07
1.61782e-07
1.6163e-07
1.6159e-07
1.61573e-07
1.61487e-07
1.61384e-07
1.6054e-07
1.59877e-07
1.53413e-07
1.50633e-07
1.11691e-07
1.07658e-07
-1.86409e-05
1.98726e-05
4.66689e-06
9.69671e-07
3.04132e-07
1.87677e-07
1.6646e-07
1.62573e-07
1.61782e-07
1.6163e-07
1.6159e-07
1.61573e-07
1.61487e-07
1.61384e-07
1.6054e-07
1.59878e-07
1.53413e-07
1.50633e-07
1.11691e-07
1.07658e-07
-1.864e-05
1.98733e-05
4.66692e-06
9.6966e-07
3.04125e-07
1.87675e-07
1.66459e-07
1.62573e-07
1.61782e-07
1.6163e-07
1.6159e-07
1.61573e-07
1.61487e-07
1.61384e-07
1.6054e-07
1.59878e-07
1.53413e-07
1.50633e-07
1.11691e-07
1.07658e-07
-1.86183e-05
1.98834e-05
4.66577e-06
9.69084e-07
3.03928e-07
1.87633e-07
1.6645e-07
1.62572e-07
1.61783e-07
1.61632e-07
1.61591e-07
1.61574e-07
1.61488e-07
1.61386e-07
1.60542e-07
1.59881e-07
1.5342e-07
1.50639e-07
1.11703e-07
1.07664e-07
-1.86142e-05
1.98846e-05
4.66501e-06
9.68832e-07
3.03858e-07
1.87618e-07
1.66447e-07
1.62571e-07
1.61783e-07
1.61632e-07
1.61591e-07
1.61575e-07
1.61489e-07
1.61386e-07
1.60543e-07
1.59881e-07
1.53422e-07
1.50641e-07
1.11706e-07
1.07666e-07
-1.83615e-05
1.98314e-05
4.59174e-06
9.52997e-07
3.00737e-07
1.87042e-07
1.6635e-07
1.62568e-07
1.618e-07
1.61652e-07
1.61613e-07
1.61596e-07
1.61512e-07
1.61412e-07
1.60581e-07
1.59927e-07
1.53536e-07
1.50763e-07
1.12002e-07
1.07875e-07
-1.814e-05
2.00448e-05
4.63407e-06
9.60811e-07
3.02205e-07
1.87315e-07
1.66394e-07
1.62659e-07
1.6189e-07
1.61741e-07
1.61701e-07
1.61684e-07
1.61599e-07
1.61497e-07
1.60634e-07
1.59915e-07
1.53456e-07
1.50657e-07
1.11409e-07
1.07253e-07
-1.83829e-05
2.00993e-05
4.70811e-06
9.76805e-07
3.05362e-07
1.87897e-07
1.66493e-07
1.62661e-07
1.61874e-07
1.6172e-07
1.6168e-07
1.61662e-07
1.61575e-07
1.61471e-07
1.60594e-07
1.59868e-07
1.5334e-07
1.50534e-07
1.11108e-07
1.07039e-07
-1.83869e-05
2.00981e-05
4.70887e-06
9.77059e-07
3.05432e-07
1.87913e-07
1.66497e-07
1.62661e-07
1.61874e-07
1.6172e-07
1.61679e-07
1.61662e-07
1.61575e-07
1.61471e-07
1.60593e-07
1.59867e-07
1.53338e-07
1.50532e-07
1.11105e-07
1.07037e-07
-1.84074e-05
2.00878e-05
4.71004e-06
9.77641e-07
3.05631e-07
1.87955e-07
1.66506e-07
1.62662e-07
1.61873e-07
1.61719e-07