# Probe 0 (0.085 0.04 0.021)
# Probe 1 (0.085 0.04 0.022)
# Probe 2 (0.085 0.04 0.025)
# Probe 3 (0.085 0.04 0.027)
# Probe 4 (0.085 0.04 0.029)
# Probe 5 (0.085 0.04 0.03)
# Probe 6 (0.085 0.04 0.033)
# Probe 7 (0.085 0.04 0.035)
# Probe 8 (0.085 0.04 0.037)
# Probe 9 (0.085 0.04 0.038)
# Time        0             1             2             3             4             5             6             7             8             9            
0             0             0             0             0             0             0             0             0             0             0            
0.1           0.0119546     5.30214e-29   0.0119546     0.0119546     0.0119546     5.30214e-29   0.0119546     0.0119546     0.0119546     5.30214e-29  
0.2           0.0238189     4.49736e-26   0.0238189     0.0238189     0.0238189     4.49736e-26   0.0238189     0.0238189     0.0238189     4.49736e-26  
0.3           0.0355678     2.46909e-24   0.0355678     0.0355678     0.0355678     2.46909e-24   0.0355678     0.0355678     0.0355678     2.46909e-24  
0.4           0.0471715     4.311e-23     0.0471715     0.0471715     0.0471715     4.311e-23     0.0471715     0.0471715     0.0471715     4.311e-23    
0.5           0.0586067     3.98872e-22   0.0586067     0.0586067     0.0586067     3.98872e-22   0.0586067     0.0586067     0.0586067     3.98872e-22  
0.6           0.0698599     2.46194e-21   0.0698599     0.0698599     0.0698599     2.46194e-21   0.0698599     0.0698599     0.0698599     2.46194e-21  
0.7           0.0809244     1.1474e-20    0.0809244     0.0809244     0.0809244     1.1474e-20    0.0809244     0.0809244     0.0809244     1.1474e-20   
0.8           0.0917981     4.35002e-20   0.0917981     0.0917981     0.0917981     4.35002e-20   0.0917981     0.0917981     0.0917981     4.35002e-20  
0.9           0.102481      1.40798e-19   0.102481      0.102481      0.102481      1.40798e-19   0.102481      0.102481      0.102481      1.40798e-19  
1             0.112975      4.02185e-19   0.112975      0.112975      0.112975      4.02185e-19   0.112975      0.112975      0.112975      4.02185e-19  
1.1           0.123283      1.03821e-18   0.123283      0.123283      0.123283      1.03821e-18   0.123283      0.123283      0.123283      1.03821e-18  
1.2           0.133408      2.46492e-18   0.133408      0.133408      0.133408      2.46492e-18   0.133408      0.133408      0.133408      2.46492e-18  
1.3           0.143353      5.45495e-18   0.143353      0.143353      0.143353      5.45495e-18   0.143353      0.143353      0.143353      5.45495e-18  
1.4           0.153121      1.13702e-17   0.153121      0.153121      0.153121      1.13702e-17   0.153121      0.153121      0.153121      1.13702e-17  
1.5           0.162717      2.25076e-17   0.162717      0.162717      0.162717      2.25076e-17   0.162717      0.162717      0.162717      2.25076e-17  
1.6           0.172142      4.25956e-17   0.172142      0.172142      0.172142      4.25956e-17   0.172142      0.172142      0.172142      4.25956e-17  
1.7           0.181401      7.74906e-17   0.181401      0.181401      0.181401      7.74906e-17   0.181401      0.181401      0.181401      7.74906e-17  
1.8           0.190497      1.36127e-16   0.190497      0.190497      0.190497      1.36127e-16   0.190497      0.190497      0.190497      1.36127e-16  
1.9           0.199433      2.31792e-16   0.199433      0.199433      0.199433      2.31792e-16   0.199433      0.199433      0.199433      2.31792e-16  
2             0.208212      3.83798e-16   0.208212      0.208212      0.208212      3.83798e-16   0.208212      0.208212      0.208212      3.83798e-16  
2.1           0.216837      6.19651e-16   0.216837      0.216837      0.216837      6.19651e-16   0.216837      0.216837      0.216837      6.19651e-16  
2.2           0.225313      9.77809e-16   0.225313      0.225313      0.225313      9.77809e-16   0.225313      0.225313      0.225313      9.77809e-16  
2.3           0.23364       1.51116e-15   0.23364       0.23364       0.23364       1.51116e-15   0.23364       0.23364       0.23364       1.51116e-15  
2.4           0.241823      2.29132e-15   0.241823      0.241823      0.241823      2.29132e-15   0.241823      0.241823      0.241823      2.29132e-15  
2.5           0.249864      3.41399e-15   0.249864      0.249864      0.249864      3.41399e-15   0.249864      0.249864      0.249864      3.41399e-15  
2.6           0.257766      5.00538e-15   0.257766      0.257766      0.257766      5.00538e-15   0.257766      0.257766      0.257766      5.00538e-15  
2.7           0.265533      7.23002e-15   0.265533      0.265533      0.265533      7.23002e-15   0.265533      0.265533      0.265533      7.23002e-15  
2.8           0.273165      1.03001e-14   0.273165      0.273165      0.273165      1.03001e-14   0.273165      0.273165      0.273165      1.03001e-14  
2.9           0.280667      1.44867e-14   0.280667      0.280667      0.280667      1.44867e-14   0.280667      0.280667      0.280667      1.44867e-14  
3             0.28804       2.01325e-14   0.28804       0.28804       0.28804       2.01325e-14   0.28804       0.28804       0.28804       2.01325e-14  
3.1           0.295287      2.76676e-14   0.295287      0.295287      0.295287      2.76676e-14   0.295287      0.295287      0.295287      2.76676e-14  
3.2           0.302412      3.76269e-14   0.302412      0.302412      0.302412      3.76269e-14   0.302412      0.302412      0.302412      3.76269e-14  
3.3           0.309415      5.06712e-14   0.309415      0.309415      0.309415      5.06712e-14   0.309415      0.309415      0.309415      5.06712e-14  
3.4           0.3163        6.76104e-14   0.3163        0.3163        0.3163        6.76104e-14   0.3163        0.3163        0.3163        6.76104e-14  
3.5           0.323068      8.94314e-14   0.323068      0.323068      0.323068      8.94314e-14   0.323068      0.323068      0.323068      8.94314e-14  
3.6           0.329723      1.17328e-13   0.329723      0.329723      0.329723      1.17328e-13   0.329723      0.329723      0.329723      1.17328e-13  
3.7           0.336266      1.52739e-13   0.336266      0.336266      0.336266      1.52739e-13   0.336266      0.336266      0.336266      1.52739e-13  
3.8           0.342699      1.97383e-13   0.342699      0.342699      0.342699      1.97383e-13   0.342699      0.342699      0.342699      1.97383e-13  
3.9           0.349025      2.53309e-13   0.349025      0.349025      0.349025      2.53309e-13   0.349025      0.349025      0.349025      2.53309e-13  
4             0.355245      3.2294e-13    0.355245      0.355245      0.355245      3.2294e-13    0.355245      0.355245      0.355245      3.2294e-13   
4.1           0.361363      4.09138e-13   0.361363      0.361363      0.361363      4.09138e-13   0.361363      0.361363      0.361363      4.09138e-13  
4.2           0.367379      5.15258e-13   0.367379      0.367379      0.367379      5.15258e-13   0.367379      0.367379      0.367379      5.15258e-13  
4.3           0.373295      6.45221e-13   0.373295      0.373295      0.373295      6.45221e-13   0.373295      0.373295      0.373295      6.45221e-13  
4.4           0.379115      8.03592e-13   0.379115      0.379115      0.379115      8.03592e-13   0.379115      0.379115      0.379115      8.03592e-13  
4.5           0.384839      9.95663e-13   0.384839      0.384839      0.384839      9.95663e-13   0.384839      0.384839      0.384839      9.95663e-13  
4.6           0.390469      1.22755e-12   0.390469      0.390469      0.390469      1.22755e-12   0.390469      0.390469      0.390469      1.22755e-12  
4.7           0.396007      1.50628e-12   0.396007      0.396007      0.396007      1.50628e-12   0.396007      0.396007      0.396007      1.50628e-12  
4.8           0.401455      1.83993e-12   0.401455      0.401455      0.401455      1.83993e-12   0.401455      0.401455      0.401455      1.83993e-12  
4.9           0.406815      2.23774e-12   0.406815      0.406815      0.406815      2.23774e-12   0.406815      0.406815      0.406815      2.23774e-12  
5             0.412088      2.71021e-12   0.412088      0.412088      0.412088      2.71021e-12   0.412088      0.412088      0.412088      2.71021e-12  
