/*--------------------------------*- C++ -*----------------------------------*\
  =========                 |
  \\      /  F ield         | OpenFOAM: The Open Source CFD Toolbox
   \\    /   O peration     | Website:  https://openfoam.org
    \\  /    A nd           | Version:  8
     \\/     M anipulation  |
\*---------------------------------------------------------------------------*/
FoamFile
{
    version     2.0;
    format      ascii;
    class       volScalarField;
    location    "1.8";
    object      H2;
}
// * * * * * * * * * * * * * * * * * * * * * * * * * * * * * * * * * * * * * //

dimensions      [0 1 -1 0 0 0 0];

internalField   nonuniform List<scalar> 
180000
(
-1.57442e-29
-8.43558e-25
-4.02111e-20
-1.64974e-15
-5.64107e-11
-1.75348e-29
-9.32129e-25
-4.40049e-20
-1.7826e-15
-5.98359e-11
-1.75872e-29
-9.34712e-25
-4.41152e-20
-1.78647e-15
-5.99376e-11
-1.77656e-29
-9.43591e-25
-4.44979e-20
-1.80001e-15
-6.02953e-11
-1.77725e-29
-9.43939e-25
-4.45129e-20
-1.80054e-15
-6.03094e-11
-1.77887e-29
-9.44772e-25
-4.455e-20
-1.80191e-15
-6.03472e-11
-1.77896e-29
-9.44822e-25
-4.45524e-20
-1.802e-15
-6.03503e-11
-1.77918e-29
-9.44948e-25
-4.45586e-20
-1.80226e-15
-6.03584e-11
-1.77919e-29
-9.44956e-25
-4.4559e-20
-1.80228e-15
-6.03593e-11
-1.77922e-29
-9.44975e-25
-4.45601e-20
-1.80233e-15
-6.0361e-11
-1.77922e-29
-9.44975e-25
-4.45601e-20
-1.80233e-15
-6.0361e-11
-1.77919e-29
-9.44956e-25
-4.4559e-20
-1.80228e-15
-6.03593e-11
-1.77918e-29
-9.44948e-25
-4.45586e-20
-1.80226e-15
-6.03584e-11
-1.77896e-29
-9.44822e-25
-4.45524e-20
-1.802e-15
-6.03503e-11
-1.77887e-29
-9.44772e-25
-4.455e-20
-1.80191e-15
-6.03472e-11
-1.77725e-29
-9.43939e-25
-4.45129e-20
-1.80054e-15
-6.03094e-11
-1.77656e-29
-9.43591e-25
-4.44979e-20
-1.80001e-15
-6.02953e-11
-1.75872e-29
-9.34712e-25
-4.41152e-20
-1.78647e-15
-5.99376e-11
-1.75348e-29
-9.32129e-25
-4.40049e-20
-1.7826e-15
-5.98359e-11
-1.57442e-29
-8.43558e-25
-4.02111e-20
-1.64974e-15
-5.64107e-11
-1.57433e-29
-8.43513e-25
-4.02136e-20
-1.65991e-15
-7.34063e-11
-1.75338e-29
-9.32076e-25
-4.40065e-20
-1.79176e-15
-7.52556e-11
-1.75862e-29
-9.34659e-25
-4.41167e-20
-1.7956e-15
-7.53291e-11
-1.77645e-29
-9.43537e-25
-4.44993e-20
-1.80905e-15
-7.55676e-11
-1.77715e-29
-9.43885e-25
-4.45143e-20
-1.80958e-15
-7.55795e-11
-1.77877e-29
-9.44718e-25
-4.45514e-20
-1.81093e-15
-7.5606e-11
-1.77886e-29
-9.44769e-25
-4.45538e-20
-1.81103e-15
-7.56092e-11
-1.77908e-29
-9.44895e-25
-4.456e-20
-1.81128e-15
-7.56149e-11
-1.77909e-29
-9.44902e-25
-4.45604e-20
-1.81131e-15
-7.5616e-11
-1.77912e-29
-9.44922e-25
-4.45615e-20
-1.81135e-15
-7.56172e-11
-1.77912e-29
-9.44922e-25
-4.45615e-20
-1.81135e-15
-7.56172e-11
-1.77909e-29
-9.44902e-25
-4.45604e-20
-1.81131e-15
-7.5616e-11
-1.77908e-29
-9.44895e-25
-4.456e-20
-1.81128e-15
-7.56149e-11
-1.77886e-29
-9.44769e-25
-4.45538e-20
-1.81103e-15
-7.56092e-11
-1.77877e-29
-9.44718e-25
-4.45514e-20
-1.81093e-15
-7.5606e-11
-1.77715e-29
-9.43885e-25
-4.45143e-20
-1.80958e-15
-7.55795e-11
-1.77645e-29
-9.43537e-25
-4.44993e-20
-1.80905e-15
-7.55676e-11
-1.75862e-29
-9.3466e-25
-4.41167e-20
-1.7956e-15
-7.53291e-11
-1.75338e-29
-9.32076e-25
-4.40065e-20
-1.79176e-15
-7.52556e-11
-1.57433e-29
-8.43513e-25
-4.02136e-20
-1.65991e-15
-7.34063e-11
-1.57425e-29
-8.43449e-25
-4.02124e-20
-1.65402e-15
-4.22995e-11
-1.7533e-29
-9.31994e-25
-4.39887e-20
-1.76215e-15
-5.16187e-12
-1.75854e-29
-9.34577e-25
-4.40988e-20
-1.76561e-15
-4.58441e-12
-1.77637e-29
-9.43454e-25
-4.44803e-20
-1.77761e-15
-2.3876e-12
-1.77706e-29
-9.43802e-25
-4.44954e-20
-1.77815e-15
-2.40378e-12
-1.77868e-29
-9.44635e-25
-4.45324e-20
-1.77954e-15
-2.48504e-12
-1.77877e-29
-9.44685e-25
-4.45349e-20
-1.77965e-15
-2.51842e-12
-1.77899e-29
-9.44811e-25
-4.45411e-20
-1.77995e-15
-2.59339e-12
-1.779e-29
-9.44818e-25
-4.45415e-20
-1.77998e-15
-2.60743e-12
-1.77903e-29
-9.44838e-25
-4.45426e-20
-1.78004e-15
-2.62729e-12
-1.77903e-29
-9.44838e-25
-4.45426e-20
-1.78004e-15
-2.62729e-12
-1.779e-29
-9.44818e-25
-4.45415e-20
-1.77998e-15
-2.60743e-12
-1.77899e-29
-9.44811e-25
-4.45411e-20
-1.77995e-15
-2.59339e-12
-1.77877e-29
-9.44685e-25
-4.45349e-20
-1.77965e-15
-2.51842e-12
-1.77868e-29
-9.44635e-25
-4.45324e-20
-1.77954e-15
-2.48504e-12
-1.77706e-29
-9.43802e-25
-4.44954e-20
-1.77815e-15
-2.40377e-12
-1.77637e-29
-9.43454e-25
-4.44803e-20
-1.77761e-15
-2.38759e-12
-1.75854e-29
-9.34577e-25
-4.40988e-20
-1.76561e-15
-4.5844e-12
-1.7533e-29
-9.31994e-25
-4.39888e-20
-1.76215e-15
-5.16185e-12
-1.57425e-29
-8.4345e-25
-4.02124e-20
-1.65402e-15
-4.22995e-11
-1.57414e-29
-8.42951e-25
-3.95733e-20
-6.63451e-16
1.63938e-09
-1.75317e-29
-9.31397e-25
-4.32219e-20
-5.8973e-16
1.95904e-09
-1.75842e-29
-9.3398e-25
-4.33303e-20
-5.90578e-16
1.96393e-09
-1.77625e-29
-9.42852e-25
-4.37072e-20
-5.94005e-16
1.98197e-09
-1.77694e-29
-9.43201e-25
-4.37226e-20
-5.94838e-16
1.98174e-09
-1.77856e-29
-9.44035e-25
-4.37615e-20
-5.97868e-16
1.98029e-09
-1.77865e-29
-9.44085e-25
-4.37642e-20
-5.98252e-16
1.97996e-09
-1.77887e-29
-9.44212e-25
-4.37712e-20
-5.9941e-16
1.979e-09
-1.77888e-29
-9.44219e-25
-4.37718e-20
-5.99547e-16
1.97887e-09
-1.77891e-29
-9.44239e-25
-4.37731e-20
-5.99834e-16
1.97862e-09
-1.77891e-29
-9.44239e-25
-4.37731e-20
-5.99834e-16
1.97862e-09
-1.77888e-29
-9.44219e-25
-4.37718e-20
-5.99547e-16
1.97887e-09
-1.77887e-29
-9.44212e-25
-4.37712e-20
-5.9941e-16
1.979e-09
-1.77865e-29
-9.44085e-25
-4.37642e-20
-5.98252e-16
1.97996e-09
-1.77856e-29
-9.44035e-25
-4.37615e-20
-5.97868e-16
1.98029e-09
-1.77694e-29
-9.43201e-25
-4.37226e-20
-5.94838e-16
1.98174e-09
-1.77625e-29
-9.42852e-25
-4.37072e-20
-5.94005e-16
1.98197e-09
-1.75842e-29
-9.3398e-25
-4.33303e-20
-5.90578e-16
1.96393e-09
-1.75317e-29
-9.31397e-25
-4.32219e-20
-5.8973e-16
1.95904e-09
-1.57414e-29
-8.42951e-25
-3.95733e-20
-6.63451e-16
1.63938e-09
-1.57378e-29
-8.39056e-25
-3.42215e-20
6.59447e-15
1.22527e-08
-1.75277e-29
-9.27094e-25
-3.73329e-20
7.37408e-15
1.35475e-08
-1.75802e-29
-9.29674e-25
-3.7436e-20
7.38196e-15
1.35661e-08
-1.77585e-29
-9.38547e-25
-3.78055e-20
7.40326e-15
1.36337e-08
-1.77654e-29
-9.38898e-25
-3.78236e-20
7.40037e-15
1.36322e-08
-1.77816e-29
-9.39745e-25
-3.78761e-20
7.38659e-15
1.36234e-08
-1.77825e-29
-9.39797e-25
-3.78805e-20
7.38474e-15
1.36218e-08
-1.77847e-29
-9.39929e-25
-3.78935e-20
7.37849e-15
1.36167e-08
-1.77848e-29
-9.39937e-25
-3.78947e-20
7.37779e-15
1.3616e-08
-1.77851e-29
-9.39959e-25
-3.78976e-20
7.37617e-15
1.36147e-08
-1.77851e-29
-9.39959e-25
-3.78976e-20
7.37617e-15
1.36147e-08
-1.77848e-29
-9.39937e-25
-3.78947e-20
7.37779e-15
1.3616e-08
-1.77847e-29
-9.39929e-25
-3.78935e-20
7.37849e-15
1.36167e-08
-1.77825e-29
-9.39797e-25
-3.78805e-20
7.38474e-15
1.36218e-08
-1.77816e-29
-9.39745e-25
-3.78761e-20
7.38659e-15
1.36234e-08
-1.77654e-29
-9.38898e-25
-3.78236e-20
7.40037e-15
1.36322e-08
-1.77585e-29
-9.38547e-25
-3.78055e-20
7.40326e-15
1.36337e-08
-1.75802e-29
-9.29674e-25
-3.7436e-20
7.38196e-15
1.35661e-08
-1.75277e-29
-9.27094e-25
-3.73329e-20
7.37408e-15
1.35475e-08
-1.57378e-29
-8.39056e-25
-3.42215e-20
6.59447e-15
1.22527e-08
-1.57217e-29
-8.20162e-25
-1.05071e-20
3.47517e-14
4.74926e-08
-1.75106e-29
-9.07019e-25
-1.21673e-20
3.72286e-14
5.07543e-08
-1.75631e-29
-9.09597e-25
-1.22615e-20
3.72536e-14
5.07975e-08
-1.77414e-29
-9.18521e-25
-1.26522e-20
3.73081e-14
5.0951e-08
-1.77484e-29
-9.18884e-25
-1.26819e-20
3.72975e-14
5.09452e-08
-1.77646e-29
-9.19795e-25
-1.27923e-20
3.72442e-14
5.09142e-08
-1.77655e-29
-9.19854e-25
-1.28031e-20
3.72375e-14
5.09093e-08
-1.77678e-29
-9.20012e-25
-1.28405e-20
3.72136e-14
5.08927e-08
-1.77679e-29
-9.20022e-25
-1.28441e-20
3.7211e-14
5.08907e-08
-1.77682e-29
-9.2005e-25
-1.28533e-20
3.72048e-14
5.08863e-08
-1.77682e-29
-9.2005e-25
-1.28533e-20
3.72048e-14
5.08863e-08
-1.77679e-29
-9.20022e-25
-1.28441e-20
3.7211e-14
5.08907e-08
-1.77678e-29
-9.20012e-25
-1.28405e-20
3.72136e-14
5.08927e-08
-1.77655e-29
-9.19854e-25
-1.28031e-20
3.72375e-14
5.09093e-08
-1.77646e-29
-9.19795e-25
-1.27923e-20
3.72442e-14
5.09142e-08
-1.77484e-29
-9.18884e-25
-1.26819e-20
3.72975e-14
5.09452e-08
-1.77414e-29
-9.18521e-25
-1.26522e-20
3.73081e-14
5.0951e-08
-1.75631e-29
-9.09597e-25
-1.22615e-20
3.72536e-14
5.07975e-08
-1.75106e-29
-9.07019e-25
-1.21673e-20
3.72286e-14
5.07543e-08
-1.57217e-29
-8.20162e-25
-1.05071e-20
3.47517e-14
4.74926e-08
-1.56625e-29
-7.55071e-25
6.24306e-20
1.10003e-13
1.26641e-07
-1.74491e-29
-8.39443e-25
6.35434e-20
1.15293e-13
1.32443e-07
-1.75016e-29
-8.42035e-25
6.34508e-20
1.15337e-13
1.32512e-07
-1.76804e-29
-8.51223e-25
6.28967e-20
1.15375e-13
1.32739e-07
-1.76874e-29
-8.5163e-25
6.28317e-20
1.15344e-13
1.32723e-07
-1.77039e-29
-8.52754e-25
6.25479e-20
1.15188e-13
1.32643e-07
-1.77048e-29
-8.52835e-25
6.25184e-20
1.15169e-13
1.32632e-07
-1.77071e-29
-8.53079e-25
6.24098e-20
1.15101e-13
1.32592e-07
-1.77072e-29
-8.53098e-25
6.23993e-20
1.15094e-13
1.32588e-07
-1.77076e-29
-8.53148e-25
6.23717e-20
1.15076e-13
1.32578e-07
-1.77076e-29
-8.53148e-25
6.23717e-20
1.15076e-13
1.32578e-07
-1.77072e-29
-8.53098e-25
6.23993e-20
1.15094e-13
1.32588e-07
-1.77071e-29
-8.53079e-25
6.24098e-20
1.15101e-13
1.32592e-07
-1.77048e-29
-8.52835e-25
6.25184e-20
1.15169e-13
1.32632e-07
-1.77039e-29
-8.52754e-25
6.25479e-20
1.15188e-13
1.32643e-07
-1.76874e-29
-8.5163e-25
6.28317e-20
1.15344e-13
1.32723e-07
-1.76804e-29
-8.51223e-25
6.28967e-20
1.15375e-13
1.32739e-07
-1.75016e-29
-8.42035e-25
6.34508e-20
1.15337e-13
1.32512e-07
-1.74491e-29
-8.39443e-25
6.35434e-20
1.15293e-13
1.32443e-07
-1.56625e-29
-7.55071e-25
6.24306e-20
1.10003e-13
1.26641e-07
-1.54859e-29
-5.78545e-25
2.38059e-19
2.6662e-13
2.62975e-07
-1.72689e-29
-6.59063e-25
2.43058e-19
2.75257e-13
2.70824e-07
-1.73216e-29
-6.6173e-25
2.42928e-19
2.75302e-13
2.70901e-07
-1.75015e-29
-6.71804e-25
2.41814e-19
2.75145e-13
2.71094e-07
-1.75087e-29
-6.72328e-25
2.41664e-19
2.7507e-13
2.7106e-07
-1.75259e-29
-6.74023e-25
2.40967e-19
2.74701e-13
2.70893e-07
-1.7527e-29
-6.74161e-25
2.40895e-19
2.74659e-13
2.70871e-07
-1.75296e-29
-6.74632e-25
2.4062e-19
2.74502e-13
2.70794e-07
-1.75297e-29
-6.74672e-25
2.40594e-19
2.74487e-13
2.70785e-07
-1.75301e-29
-6.7478e-25
2.40524e-19
2.74446e-13
2.70765e-07
-1.75301e-29
-6.7478e-25
2.40524e-19
2.74446e-13
2.70765e-07
-1.75297e-29
-6.74672e-25
2.40594e-19
2.74487e-13
2.70785e-07
-1.75296e-29
-6.74632e-25
2.4062e-19
2.74502e-13
2.70794e-07
-1.7527e-29
-6.74161e-25
2.40895e-19
2.74659e-13
2.70871e-07
-1.75259e-29
-6.74022e-25
2.40967e-19
2.74701e-13
2.70893e-07
-1.75087e-29
-6.72328e-25
2.41664e-19
2.7507e-13
2.7106e-07
-1.75015e-29
-6.71804e-25
2.41814e-19
2.75145e-13
2.71094e-07
-1.73216e-29
-6.6173e-25
2.42928e-19
2.75302e-13
2.70901e-07
-1.72689e-29
-6.59063e-25
2.43058e-19
2.75257e-13
2.70824e-07
-1.54859e-29
-5.78545e-25
2.38059e-19
2.6662e-13
2.62975e-07
-1.50409e-29
-1.76228e-25
5.93352e-19
5.40075e-13
4.58177e-07
-1.68205e-29
-2.52744e-25
6.02096e-19
5.51387e-13
4.66564e-07
-1.68737e-29
-2.55651e-25
6.0183e-19
5.51385e-13
4.66614e-07
-1.70571e-29
-2.68022e-25
5.99323e-19
5.50668e-13
4.66575e-07
-1.70646e-29
-2.6881e-25
5.99004e-19
5.50516e-13
4.66512e-07
-1.70837e-29
-2.71798e-25
5.97472e-19
5.49766e-13
4.66205e-07
-1.70849e-29
-2.72065e-25
5.97316e-19
5.49686e-13
4.6617e-07
-1.70883e-29
-2.73043e-25
5.96711e-19
5.49376e-13
4.66036e-07
-1.70885e-29
-2.7313e-25
5.96654e-19
5.49346e-13
4.66023e-07
-1.70891e-29
-2.73369e-25
5.96498e-19
5.49266e-13
4.65988e-07
-1.70891e-29
-2.73369e-25
5.96498e-19
5.49266e-13
4.65988e-07
-1.70885e-29
-2.7313e-25
5.96654e-19
5.49346e-13
4.66023e-07
-1.70883e-29
-2.73043e-25
5.96711e-19
5.49376e-13
4.66036e-07
-1.70849e-29
-2.72065e-25
5.97316e-19
5.49686e-13
4.6617e-07
-1.70837e-29
-2.71798e-25
5.97472e-19
5.49766e-13
4.66205e-07
-1.70646e-29
-2.6881e-25
5.99004e-19
5.50516e-13
4.66512e-07
-1.70571e-29
-2.68022e-25
5.99323e-19
5.50668e-13
4.66575e-07
-1.68737e-29
-2.55651e-25
6.0183e-19
5.51385e-13
4.66614e-07
-1.68205e-29
-2.52743e-25
6.02096e-19
5.51387e-13
4.66564e-07
-1.50409e-29
-1.76228e-25
5.93352e-19
5.40075e-13
4.58177e-07
-1.40581e-29
6.28489e-25
1.22568e-18
9.61062e-13
7.04031e-07
-1.58396e-29
5.52734e-25
1.23562e-18
9.72956e-13
7.1105e-07
-1.58937e-29
5.49248e-25
1.23503e-18
9.72828e-13
7.11033e-07
-1.60854e-29
5.31841e-25
1.22968e-18
9.70982e-13
7.10514e-07
-1.60938e-29
5.30527e-25
1.22906e-18
9.70707e-13
7.1041e-07
-1.61169e-29
5.24956e-25
1.22603e-18
9.69352e-13
7.09901e-07
-1.61185e-29
5.24439e-25
1.22573e-18
9.69212e-13
7.09846e-07
-1.61234e-29
5.22457e-25
1.22454e-18
9.68664e-13
7.09636e-07
-1.61238e-29
5.22279e-25
1.22443e-18
9.68612e-13
7.09615e-07
-1.61248e-29
5.21783e-25
1.22412e-18
9.6847e-13
7.09561e-07
-1.61248e-29
5.21783e-25
1.22412e-18
9.6847e-13
7.09561e-07
-1.61238e-29
5.22279e-25
1.22443e-18
9.68612e-13
7.09615e-07
-1.61234e-29
5.22457e-25
1.22454e-18
9.68664e-13
7.09636e-07
-1.61185e-29
5.24439e-25
1.22573e-18
9.69212e-13
7.09846e-07
-1.61169e-29
5.24956e-25
1.22603e-18
9.69352e-13
7.09901e-07
-1.60938e-29
5.30528e-25
1.22906e-18
9.70707e-13
7.1041e-07
-1.60854e-29
5.31841e-25
1.22968e-18
9.70982e-13
7.10514e-07
-1.58937e-29
5.49248e-25
1.23503e-18
9.72828e-13
7.11033e-07
-1.58396e-29
5.52734e-25
1.23562e-18
9.72956e-13
7.1105e-07
-1.40581e-29
6.28489e-25
1.22568e-18
9.61062e-13
7.04031e-07
-1.21499e-29
2.01077e-24
2.13308e-18
1.37966e-12
7.0102e-07
-1.39472e-29
1.92915e-24
2.14168e-18
1.39219e-12
7.08109e-07
-1.40035e-29
1.92458e-24
2.1406e-18
1.39194e-12
7.08096e-07
-1.42117e-29
1.89811e-24
2.13099e-18
1.38899e-12
7.07601e-07
-1.42217e-29
1.89589e-24
2.12993e-18
1.38859e-12
7.07498e-07
-1.42527e-29
1.88589e-24
2.12476e-18
1.38664e-12
7.06999e-07
-1.4255e-29
1.88495e-24
2.12425e-18
1.38644e-12
7.06945e-07
-1.4263e-29
1.88126e-24
2.12223e-18
1.38566e-12
7.06739e-07
-1.42636e-29
1.88093e-24
2.12204e-18
1.38559e-12
7.06719e-07
-1.42654e-29
1.87999e-24
2.12152e-18
1.38539e-12
7.06665e-07
-1.42654e-29
1.87999e-24
2.12152e-18
1.38539e-12
7.06665e-07
-1.42636e-29
1.88093e-24
2.12204e-18
1.38559e-12
7.06719e-07
-1.4263e-29
1.88126e-24
2.12223e-18
1.38566e-12
7.06739e-07
-1.4255e-29
1.88495e-24
2.12425e-18
1.38644e-12
7.06945e-07
-1.42527e-29
1.88589e-24
2.12476e-18
1.38664e-12
7.06999e-07
-1.42217e-29
1.89589e-24
2.12993e-18
1.38859e-12
7.07498e-07
-1.42117e-29
1.89811e-24
2.13099e-18
1.38899e-12
7.07601e-07
-1.40035e-29
1.92458e-24
2.1406e-18
1.39194e-12
7.08096e-07
-1.39472e-29
1.92915e-24
2.14168e-18
1.39219e-12
7.08109e-07
-1.21499e-29
2.01077e-24
2.13308e-18
1.37966e-12
7.0102e-07
-8.81183e-30
4.14426e-24
3.3135e-18
1.79586e-12
6.98074e-07
-1.0651e-29
4.04681e-24
3.31829e-18
1.80906e-12
7.0523e-07
-1.0711e-29
4.04048e-24
3.31653e-18
1.8087e-12
7.0522e-07
-1.0949e-29
3.99964e-24
3.30127e-18
1.80467e-12
7.04748e-07
-1.09618e-29
3.99605e-24
3.29965e-18
1.80415e-12
7.04647e-07
-1.10066e-29
3.97923e-24
3.2917e-18
1.80162e-12
7.04158e-07
-1.10102e-29
3.97765e-24
3.29093e-18
1.80136e-12
7.04105e-07
-1.10234e-29
3.97133e-24
3.28783e-18
1.80035e-12
7.03902e-07
-1.10245e-29
3.97076e-24
3.28754e-18
1.80026e-12
7.03883e-07
-1.10276e-29
3.96915e-24
3.28675e-18
1.79999e-12
7.0383e-07
-1.10276e-29
3.96915e-24
3.28675e-18
1.79999e-12
7.0383e-07
-1.10245e-29
3.97076e-24
3.28754e-18
1.80026e-12
7.03883e-07
-1.10234e-29
3.97133e-24
3.28783e-18
1.80035e-12
7.03902e-07
-1.10102e-29
3.97765e-24
3.29093e-18
1.80136e-12
7.04105e-07
-1.10066e-29
3.97923e-24
3.2917e-18
1.80162e-12
7.04158e-07
-1.09618e-29
3.99605e-24
3.29965e-18
1.80415e-12
7.04647e-07
-1.0949e-29
3.99964e-24
3.30127e-18
1.80467e-12
7.04748e-07
-1.0711e-29
4.04048e-24
3.31653e-18
1.8087e-12
7.0522e-07
-1.0651e-29
4.04681e-24
3.31829e-18
1.80906e-12
7.0523e-07
-8.81183e-30
4.14426e-24
3.3135e-18
1.79586e-12
6.98074e-07
-3.42259e-30
7.20107e-24
4.76481e-18
2.20958e-12
6.95182e-07
-5.34551e-30
7.07444e-24
4.76333e-18
2.2235e-12
7.02403e-07
-5.41178e-30
7.06554e-24
4.76073e-18
2.22303e-12
7.02398e-07
-5.69868e-30
7.0038e-24
4.73848e-18
2.21794e-12
7.01947e-07
-5.71591e-30
6.99825e-24
4.73617e-18
2.21731e-12
7.01848e-07
-5.78286e-30
6.97168e-24
4.72481e-18
2.2142e-12
7.01368e-07
-5.78853e-30
6.96918e-24
4.72372e-18
2.21389e-12
7.01317e-07
-5.81021e-30
6.95912e-24
4.7193e-18
2.21265e-12
7.01117e-07
-5.81203e-30
6.95822e-24
4.7189e-18
2.21254e-12
7.01098e-07
-5.8173e-30
6.95566e-24
4.71777e-18
2.21222e-12
7.01046e-07
-5.8173e-30
6.95566e-24
4.71777e-18
2.21222e-12
7.01046e-07
-5.81203e-30
6.95822e-24
4.7189e-18
2.21254e-12
7.01098e-07
-5.81021e-30
6.95912e-24
4.7193e-18
2.21265e-12
7.01117e-07
-5.78853e-30
6.96918e-24
4.72372e-18
2.21389e-12
7.01317e-07
-5.78286e-30
6.97168e-24
4.72481e-18
2.2142e-12
7.01368e-07
-5.71591e-30
6.99825e-24
4.73617e-18
2.21731e-12
7.01848e-07
-5.69868e-30
7.0038e-24
4.73848e-18
2.21794e-12
7.01947e-07
-5.41178e-30
7.06554e-24
4.76073e-18
2.22303e-12
7.02398e-07
-5.34551e-30
7.07444e-24
4.76333e-18
2.2235e-12
7.02403e-07
-3.42259e-30
7.20107e-24
4.76481e-18
2.20958e-12
6.95182e-07
4.75462e-30
1.13517e-23
6.48478e-18
2.62074e-12
6.9234e-07
2.68648e-30
1.11792e-23
6.47461e-18
2.63544e-12
6.99625e-07
2.61059e-30
1.11667e-23
6.47102e-18
2.63486e-12
6.99623e-07
2.24876e-30
1.10763e-23
6.44044e-18
2.62874e-12
6.99194e-07
2.2248e-30
1.10682e-23
6.43733e-18
2.628e-12
6.99097e-07
2.12434e-30
1.10284e-23
6.42196e-18
2.62433e-12
6.98626e-07
2.11558e-30
1.10247e-23
6.42049e-18
2.62396e-12
6.98575e-07
2.08114e-30
1.10096e-23
6.41452e-18
2.6225e-12
6.9838e-07
2.0782e-30
1.10082e-23
6.41398e-18
2.62237e-12
6.98361e-07
2.06967e-30
1.10044e-23
6.41245e-18
2.62199e-12
6.9831e-07
2.06967e-30
1.10044e-23
6.41245e-18
2.62199e-12
6.9831e-07
2.0782e-30
1.10082e-23
6.41398e-18
2.62237e-12
6.98361e-07
2.08114e-30
1.10096e-23
6.41452e-18
2.6225e-12
6.9838e-07
2.11558e-30
1.10247e-23
6.42049e-18
2.62396e-12
6.98575e-07
2.12434e-30
1.10284e-23
6.42196e-18
2.62433e-12
6.98626e-07
2.2248e-30
1.10682e-23
6.43733e-18
2.628e-12
6.99097e-07
2.24876e-30
1.10763e-23
6.44044e-18
2.62874e-12
6.99194e-07
2.6106e-30
1.11667e-23
6.47102e-18
2.63486e-12
6.99623e-07
2.68648e-30
1.11792e-23
6.47461e-18
2.63544e-12
6.99625e-07
4.75462e-30
1.13517e-23
6.48478e-18
2.62074e-12
6.9234e-07
1.65716e-29
1.67648e-23
8.47108e-18
3.02928e-12
6.89544e-07
1.42736e-29
1.65264e-23
8.44984e-18
3.04479e-12
6.96891e-07
1.41837e-29
1.65093e-23
8.44511e-18
3.04411e-12
6.96893e-07
1.37129e-29
1.63814e-23
8.40493e-18
3.037e-12
6.96485e-07
1.36793e-29
1.63698e-23
8.4009e-18
3.03615e-12
6.9639e-07
1.35305e-29
1.63129e-23
8.38091e-18
3.03191e-12
6.95928e-07
1.35173e-29
1.63076e-23
8.37901e-18
3.0315e-12
6.95878e-07
1.34646e-29
1.62859e-23
8.37126e-18
3.02982e-12
6.95686e-07
1.346e-29
1.6284e-23
8.37057e-18
3.02966e-12
6.95668e-07
1.34468e-29
1.62785e-23
8.36858e-18
3.02923e-12
6.95618e-07
1.34468e-29
1.62785e-23
8.36858e-18
3.02923e-12
6.95618e-07
1.346e-29
1.6284e-23
8.37057e-18
3.02966e-12
6.95668e-07
1.34646e-29
1.62859e-23
8.37126e-18
3.02982e-12
6.95686e-07
1.35173e-29
1.63076e-23
8.37901e-18
3.0315e-12
6.95878e-07
1.35305e-29
1.63129e-23
8.38091e-18
3.03191e-12
6.95928e-07
1.36793e-29
1.63698e-23
8.4009e-18
3.03615e-12
6.9639e-07
1.37129e-29
1.63814e-23
8.40493e-18
3.037e-12
6.96485e-07
1.41837e-29
1.65093e-23
8.44511e-18
3.04411e-12
6.96893e-07
1.42736e-29
1.65264e-23
8.44984e-18
3.04479e-12
6.96891e-07
1.65716e-29
1.67648e-23
8.47108e-18
3.02928e-12
6.89544e-07
3.29944e-29
2.36075e-23
1.07213e-17
3.4351e-12
6.86791e-07
3.0355e-29
2.32798e-23
1.06867e-17
3.45148e-12
6.94199e-07
3.02455e-29
2.32568e-23
1.06806e-17
3.4507e-12
6.94205e-07
2.96226e-29
2.30814e-23
1.06296e-17
3.44262e-12
6.93816e-07
2.95756e-29
2.30655e-23
1.06246e-17
3.44166e-12
6.93724e-07
2.936e-29
2.2987e-23
1.05994e-17
3.43689e-12
6.9327e-07
2.93408e-29
2.29797e-23
1.0597e-17
3.43642e-12
6.93221e-07
2.92626e-29
2.29498e-23
1.05872e-17
3.43453e-12
6.93033e-07
2.92558e-29
2.29472e-23
1.05864e-17
3.43435e-12
6.93015e-07
2.92362e-29
2.29396e-23
1.05839e-17
3.43387e-12
6.92966e-07
2.92362e-29
2.29396e-23
1.05839e-17
3.43387e-12
6.92966e-07
2.92558e-29
2.29472e-23
1.05864e-17
3.43435e-12
6.93015e-07
2.92626e-29
2.29498e-23
1.05872e-17
3.43453e-12
6.93033e-07
2.93408e-29
2.29797e-23
1.0597e-17
3.43642e-12
6.93221e-07
2.936e-29
2.2987e-23
1.05994e-17
3.43689e-12
6.9327e-07
2.95756e-29
2.30655e-23
1.06246e-17
3.44166e-12
6.93724e-07
2.96226e-29
2.30814e-23
1.06296e-17
3.44262e-12
6.93816e-07
3.02456e-29
2.32568e-23
1.06806e-17
3.4507e-12
6.94205e-07
3.0355e-29
2.32798e-23
1.06867e-17
3.45148e-12
6.94199e-07
3.29944e-29
2.36075e-23
1.07213e-17
3.4351e-12
6.86791e-07
5.51025e-29
3.20451e-23
1.3233e-17
3.83814e-12
6.84076e-07
5.19793e-29
3.16013e-23
1.31826e-17
3.85543e-12
6.91544e-07
5.18435e-29
3.1571e-23
1.31752e-17
3.85456e-12
6.91554e-07
5.10153e-29
3.1337e-23
1.31121e-17
3.84553e-12
6.91185e-07
5.09505e-29
3.13159e-23
1.31059e-17
3.84447e-12
6.91095e-07
5.06451e-29
3.12109e-23
1.30749e-17
3.83916e-12
6.90649e-07
5.06178e-29
3.12012e-23
1.3072e-17
3.83864e-12
6.90601e-07
5.05056e-29
3.11611e-23
1.306e-17
3.83655e-12
6.90416e-07
5.04959e-29
3.11576e-23
1.3059e-17
3.83636e-12
6.90398e-07
5.04676e-29
3.11474e-23
1.30559e-17
3.83582e-12
6.9035e-07
5.04676e-29
3.11474e-23
1.30559e-17
3.83582e-12
6.9035e-07
5.04959e-29
3.11576e-23
1.3059e-17
3.83636e-12
6.90398e-07
5.05056e-29
3.11611e-23
1.306e-17
3.83655e-12
6.90416e-07
5.06178e-29
3.12012e-23
1.3072e-17
3.83864e-12
6.90601e-07
5.06451e-29
3.12109e-23
1.30749e-17
3.83916e-12
6.90649e-07
5.09505e-29
3.13159e-23
1.31059e-17
3.84447e-12
6.91095e-07
5.10153e-29
3.1337e-23
1.31121e-17
3.84553e-12
6.91185e-07
5.18435e-29
3.1571e-23
1.31752e-17
3.85456e-12
6.91554e-07
5.19793e-29
3.16013e-23
1.31826e-17
3.85543e-12
6.91544e-07
5.51025e-29
3.20451e-23
1.3233e-17
3.83814e-12
6.84076e-07
8.40879e-29
4.22409e-23
1.60036e-17
4.23831e-12
6.81396e-07
8.03039e-29
4.16508e-23
1.59351e-17
4.25655e-12
6.88923e-07
8.01335e-29
4.16118e-23
1.59261e-17
4.25561e-12
6.88936e-07
7.9036e-29
4.13071e-23
1.58498e-17
4.24566e-12
6.88587e-07
7.89482e-29
4.12797e-23
1.58424e-17
4.2445e-12
6.88498e-07
7.85255e-29
4.11427e-23
1.58051e-17
4.23867e-12
6.88061e-07
7.84876e-29
4.11301e-23
1.58016e-17
4.2381e-12
6.88014e-07
7.8331e-29
4.1078e-23
1.57872e-17
4.2358e-12
6.87832e-07
7.83176e-29
4.10734e-23
1.57859e-17
4.23559e-12
6.87814e-07
7.82779e-29
4.10601e-23
1.57823e-17
4.235e-12
6.87767e-07
7.82779e-29
4.10601e-23
1.57823e-17
4.235e-12
6.87767e-07
7.83176e-29
4.10734e-23
1.57859e-17
4.23559e-12
6.87814e-07
7.8331e-29
4.1078e-23
1.57872e-17
4.2358e-12
6.87832e-07
7.84876e-29
4.11301e-23
1.58016e-17
4.2381e-12
6.88014e-07
7.85255e-29
4.11427e-23
1.58051e-17
4.23867e-12
6.88061e-07
7.89482e-29
4.12797e-23
1.58424e-17
4.2445e-12
6.88498e-07
7.90361e-29
4.13071e-23
1.58498e-17
4.24566e-12
6.88587e-07
8.01335e-29
4.16118e-23
1.59261e-17
4.25561e-12
6.88936e-07
8.03039e-29
4.16508e-23
1.59351e-17
4.25655e-12
6.88923e-07
8.40879e-29
4.22409e-23
1.60036e-17
4.23831e-12
6.81396e-07
1.21255e-28
5.43563e-23
1.90303e-17
4.63552e-12
6.78744e-07
1.16594e-28
5.35866e-23
1.89416e-17
4.65477e-12
6.86327e-07
1.1638e-28
5.35372e-23
1.89309e-17
4.65374e-12
6.86344e-07
1.14937e-28
5.31485e-23
1.88403e-17
4.64291e-12
6.86014e-07
1.1482e-28
5.31137e-23
1.88315e-17
4.64165e-12
6.85928e-07
1.14247e-28
5.29391e-23
1.87874e-17
4.63531e-12
6.85499e-07
1.14196e-28
5.29231e-23
1.87832e-17
4.6347e-12
6.85452e-07
1.13983e-28
5.28565e-23
1.87662e-17
4.6322e-12
6.85273e-07
1.13964e-28
5.28507e-23
1.87647e-17
4.63197e-12
6.85256e-07
1.1391e-28
5.28338e-23
1.87604e-17
4.63133e-12
6.8521e-07
1.1391e-28
5.28338e-23
1.87604e-17
4.63133e-12
6.8521e-07
1.13964e-28
5.28507e-23
1.87647e-17
4.63197e-12
6.85256e-07
1.13983e-28
5.28565e-23
1.87662e-17
4.6322e-12
6.85273e-07
1.14196e-28
5.29231e-23
1.87832e-17
4.6347e-12
6.85452e-07
1.14247e-28
5.29391e-23
1.87874e-17
4.63531e-12
6.85499e-07
1.1482e-28
5.31137e-23
1.88315e-17
4.64165e-12
6.85928e-07
1.14937e-28
5.31485e-23
1.88403e-17
4.64291e-12
6.86014e-07
1.1638e-28
5.35372e-23
1.89309e-17
4.65374e-12
6.86344e-07
1.16594e-28
5.35866e-23
1.89416e-17
4.65477e-12
6.86327e-07
1.21255e-28
5.43563e-23
1.90303e-17
4.63552e-12
6.78744e-07
1.68017e-28
6.85509e-23
2.23105e-17
5.02967e-12
6.76088e-07
1.62223e-28
6.75646e-23
2.21993e-17
5.04997e-12
6.83729e-07
1.61953e-28
6.75031e-23
2.21868e-17
5.04887e-12
6.8375e-07
1.60076e-28
6.70165e-23
2.20808e-17
5.03718e-12
6.83439e-07
1.59922e-28
6.69731e-23
2.20706e-17
5.03583e-12
6.83354e-07
1.59162e-28
6.67544e-23
2.2019e-17
5.029e-12
6.82933e-07
1.59094e-28
6.67345e-23
2.20142e-17
5.02833e-12
6.82887e-07
1.58809e-28
6.66512e-23
2.19944e-17
5.02564e-12
6.82712e-07
1.58785e-28
6.6644e-23
2.19926e-17
5.02539e-12
6.82695e-07
1.58713e-28
6.66228e-23
2.19876e-17
5.0247e-12
6.82649e-07
1.58713e-28
6.66228e-23
2.19876e-17
5.0247e-12
6.82649e-07
1.58785e-28
6.6644e-23
2.19926e-17
5.02539e-12
6.82695e-07
1.58809e-28
6.66512e-23
2.19944e-17
5.02564e-12
6.82712e-07
1.59094e-28
6.67345e-23
2.20142e-17
5.02833e-12
6.82887e-07
1.59162e-28
6.67544e-23
2.2019e-17
5.029e-12
6.82933e-07
1.59922e-28
6.69731e-23
2.20706e-17
5.03583e-12
6.83354e-07
1.60076e-28
6.70165e-23
2.20808e-17
5.03718e-12
6.83439e-07
1.61953e-28
6.75031e-23
2.21868e-17
5.04887e-12
6.8375e-07
1.62223e-28
6.75646e-23
2.21993e-17
5.04997e-12
6.83729e-07
1.68017e-28
6.85509e-23
2.23105e-17
5.02967e-12
6.76088e-07
-3.36677e-06
-4.7832e-07
-1.23129e-08
-6.90791e-11
-7.4311e-14
8.25647e-17
1.00066e-16
1.00207e-16
1.00238e-16
1.00243e-16
1.0025e-16
1.00283e-16
1.00465e-16
1.00703e-16
1.02752e-16
1.04602e-16
1.2451e-16
1.35746e-16
4.23741e-16
4.96527e-16
-3.45434e-06
-5.04321e-07
-1.34257e-08
-7.79553e-11
-8.70121e-14
7.90493e-17
1.00062e-16
1.00205e-16
1.00237e-16
1.00241e-16
1.00242e-16
1.00269e-16
1.00455e-16
1.00697e-16
1.02778e-16
1.04648e-16
1.24794e-16
1.361e-16
4.27197e-16
5.00729e-16
-3.45756e-06
-5.04884e-07
-1.34411e-08
-7.80619e-11
-8.71635e-14
7.90034e-17
1.00062e-16
1.00205e-16
1.00237e-16
1.00241e-16
1.00242e-16
1.0027e-16
1.00456e-16
1.00698e-16
1.02779e-16
1.0465e-16
1.24799e-16
1.36106e-16
4.27231e-16
5.00762e-16
-3.4688e-06
-5.06557e-07
-1.34687e-08
-7.819e-11
-8.73312e-14
7.89411e-17
1.00062e-16
1.00205e-16
1.00237e-16
1.00241e-16
1.00244e-16
1.00274e-16
1.0046e-16
1.00702e-16
1.02786e-16
1.04657e-16
1.24817e-16
1.36126e-16
4.2733e-16
5.00851e-16
-3.46932e-06
-5.066e-07
-1.34683e-08
-7.81829e-11
-8.7319e-14
7.89436e-17
1.00062e-16
1.00205e-16
1.00237e-16
1.00241e-16
1.00244e-16
1.00274e-16
1.0046e-16
1.00703e-16
1.02786e-16
1.04658e-16
1.24818e-16
1.36126e-16
4.27332e-16
5.00853e-16
-3.47086e-06
-5.06588e-07
-1.34613e-08
-7.81249e-11
-8.72391e-14
7.89615e-17
1.00062e-16
1.00205e-16
1.00237e-16
1.00241e-16
1.00244e-16
1.00274e-16
1.00461e-16
1.00703e-16
1.02786e-16
1.04658e-16
1.24818e-16
1.36127e-16
4.27335e-16
5.00855e-16
-3.47103e-06
-5.06588e-07
-1.34607e-08
-7.81195e-11
-8.72311e-14
7.89634e-17
1.00062e-16
1.00205e-16
1.00237e-16
1.00241e-16
1.00244e-16
1.00274e-16
1.00461e-16
1.00703e-16
1.02786e-16
1.04658e-16
1.24818e-16
1.36127e-16
4.27335e-16
5.00855e-16
-3.47148e-06
-5.06553e-07
-1.34577e-08
-7.8098e-11
-8.72033e-14
7.89697e-17
1.00062e-16
1.00205e-16
1.00237e-16
1.00241e-16
1.00244e-16
1.00274e-16
1.00461e-16
1.00703e-16
1.02786e-16
1.04658e-16
1.24818e-16
1.36127e-16
4.27336e-16
5.00855e-16
-3.47154e-06
-5.06552e-07
-1.34575e-08
-7.80963e-11
-8.7201e-14
7.89702e-17
1.00062e-16
1.00205e-16
1.00237e-16
1.00241e-16
1.00244e-16
1.00274e-16
1.00461e-16
1.00703e-16
1.02786e-16
1.04658e-16
1.24818e-16
1.36127e-16
4.27336e-16
5.00855e-16
-3.47166e-06
-5.06543e-07
-1.34568e-08
-7.80917e-11
-8.71952e-14
7.89714e-17
1.00062e-16
1.00205e-16
1.00237e-16
1.00241e-16
1.00244e-16
1.00274e-16
1.00461e-16
1.00703e-16
1.02786e-16
1.04658e-16
1.24818e-16
1.36127e-16
4.27336e-16
5.00855e-16
-3.47166e-06
-5.06543e-07
-1.34568e-08
-7.80917e-11
-8.71952e-14
7.89714e-17
1.00062e-16
1.00205e-16
1.00237e-16
1.00241e-16
1.00244e-16
1.00274e-16
1.00461e-16
1.00703e-16
1.02786e-16
1.04658e-16
1.24818e-16
1.36127e-16
4.27336e-16
5.00855e-16
-3.47154e-06
-5.06552e-07
-1.34575e-08
-7.80963e-11
-8.7201e-14
7.89702e-17
1.00062e-16
1.00205e-16
1.00237e-16
1.00241e-16
1.00244e-16
1.00274e-16
1.00461e-16
1.00703e-16
1.02786e-16
1.04658e-16
1.24818e-16
1.36127e-16
4.27336e-16
5.00855e-16
-3.47148e-06
-5.06553e-07
-1.34577e-08
-7.8098e-11
-8.72033e-14
7.89697e-17
1.00062e-16
1.00205e-16
1.00237e-16
1.00241e-16
1.00244e-16
1.00274e-16
1.00461e-16
1.00703e-16
1.02786e-16
1.04658e-16
1.24818e-16
1.36127e-16
4.27336e-16
5.00855e-16
-3.47103e-06
-5.06588e-07
-1.34607e-08
-7.81195e-11
-8.72311e-14
7.89634e-17
1.00062e-16
1.00205e-16
1.00237e-16
1.00241e-16
1.00244e-16
1.00274e-16
1.00461e-16
1.00703e-16
1.02786e-16
1.04658e-16
1.24818e-16
1.36127e-16
4.27335e-16
5.00855e-16
-3.47086e-06
-5.06588e-07
-1.34613e-08
-7.81249e-11
-8.72391e-14
7.89615e-17
1.00062e-16
1.00205e-16
1.00237e-16
1.00241e-16
1.00244e-16
1.00274e-16
1.00461e-16
1.00703e-16
1.02786e-16
1.04658e-16
1.24818e-16
1.36127e-16
4.27335e-16
5.00855e-16
-3.46932e-06
-5.066e-07
-1.34683e-08
-7.81829e-11
-8.7319e-14
7.89436e-17
1.00062e-16
1.00205e-16
1.00237e-16
1.00241e-16
1.00244e-16
1.00274e-16
1.0046e-16
1.00703e-16
1.02786e-16
1.04658e-16
1.24818e-16
1.36126e-16
4.27332e-16
5.00853e-16
-3.4688e-06
-5.06557e-07
-1.34687e-08
-7.819e-11
-8.73312e-14
7.89411e-17
1.00062e-16
1.00205e-16
1.00237e-16
1.00241e-16
1.00244e-16
1.00274e-16
1.0046e-16
1.00702e-16
1.02786e-16
1.04657e-16
1.24817e-16
1.36126e-16
4.2733e-16
5.00851e-16
-3.45756e-06
-5.04884e-07
-1.34411e-08
-7.80619e-11
-8.71635e-14
7.90034e-17
1.00062e-16
1.00205e-16
1.00237e-16
1.00241e-16
1.00242e-16
1.0027e-16
1.00456e-16
1.00698e-16
1.02779e-16
1.0465e-16
1.24799e-16
1.36106e-16
4.27231e-16
5.00762e-16
-3.45434e-06
-5.04321e-07
-1.34257e-08
-7.79553e-11
-8.70121e-14
7.90493e-17
1.00062e-16
1.00205e-16
1.00237e-16
1.00241e-16
1.00242e-16
1.00269e-16
1.00455e-16
1.00697e-16
1.02778e-16
1.04648e-16
1.24794e-16
1.361e-16
4.27197e-16
5.00729e-16
-3.36677e-06
-4.7832e-07
-1.23129e-08
-6.90791e-11
-7.4311e-14
8.25647e-17
1.00066e-16
1.00207e-16
1.00238e-16
1.00243e-16
1.0025e-16
1.00283e-16
1.00465e-16
1.00703e-16
1.02752e-16
1.04602e-16
1.2451e-16