/*--------------------------------*- C++ -*----------------------------------*\
  =========                 |
  \\      /  F ield         | OpenFOAM: The Open Source CFD Toolbox
   \\    /   O peration     | Website:  https://openfoam.org
    \\  /    A nd           | Version:  8
     \\/     M anipulation  |
\*---------------------------------------------------------------------------*/
FoamFile
{
    version     2.0;
    format      ascii;
    class       volScalarField;
    location    "1.8";
    object      p;
}
// * * * * * * * * * * * * * * * * * * * * * * * * * * * * * * * * * * * * * //

dimensions      [0 2 -2 0 0 0 0];

internalField   nonuniform List<scalar> 
180000
(
0.000971912
0.000906605
0.00095018
0.000805566
0.000883958
0.000957317
0.000892279
0.000935548
0.000792368
0.000869487
0.000956711
0.000891701
0.000934942
0.000791866
0.000868913
0.00095293
0.00088807
0.000931147
0.000788682
0.000865348
0.000952622
0.000887777
0.000930836
0.000788427
0.000865054
0.000951209
0.000886429
0.000929413
0.000787248
0.000863717
0.000951075
0.000886301
0.000929276
0.000787136
0.000863588
0.000950546
0.000885797
0.000928743
0.000786694
0.000863085
0.000950498
0.000885751
0.000928693
0.000786653
0.000863038
0.000950363
0.000885622
0.000928557
0.00078654
0.000862909
0.000950363
0.000885622
0.000928557
0.00078654
0.000862909
0.000950498
0.000885751
0.000928693
0.000786653
0.000863038
0.000950546
0.000885797
0.000928743
0.000786694
0.000863085
0.000951075
0.000886301
0.000929276
0.000787136
0.000863588
0.000951209
0.000886429
0.000929413
0.000787248
0.000863717
0.000952622
0.000887777
0.000930836
0.000788427
0.000865054
0.00095293
0.00088807
0.000931147
0.000788682
0.000865348
0.000956711
0.000891701
0.000934942
0.000791866
0.000868913
0.000957317
0.000892279
0.000935548
0.000792368
0.000869487
0.000971912
0.000906605
0.00095018
0.000805566
0.000883958
0.000762555
0.00073717
0.000755086
0.000688314
0.000727809
0.000757325
0.00073103
0.000749501
0.0006813
0.000721255
0.000757104
0.000730778
0.000749265
0.00068103
0.000720991
0.000755676
0.000729151
0.000747743
0.000679275
0.000719306
0.000755561
0.00072902
0.000747618
0.000679134
0.000719168
0.000755021
0.000728411
0.000747041
0.00067848
0.000718531
0.00075497
0.000728353
0.000746986
0.000678418
0.000718469
0.000754767
0.000728124
0.000746768
0.000678172
0.000718228
0.000754748
0.000728103
0.000746748
0.00067815
0.000718206
0.000754696
0.000728044
0.000746692
0.000678087
0.000718144
0.000754696
0.000728044
0.000746692
0.000678087
0.000718144
0.000754748
0.000728103
0.000746748
0.00067815
0.000718206
0.000754767
0.000728124
0.000746768
0.000678172
0.000718228
0.00075497
0.000728353
0.000746986
0.000678418
0.000718469
0.000755021
0.000728411
0.000747041
0.00067848
0.000718531
0.000755561
0.00072902
0.000747618
0.000679134
0.000719168
0.000755676
0.000729151
0.000747743
0.000679275
0.000719306
0.000757104
0.000730778
0.000749265
0.00068103
0.000720991
0.000757325
0.00073103
0.000749501
0.0006813
0.000721255
0.000762555
0.00073717
0.000755086
0.000688314
0.000727809
0.000551049
0.000529477
0.000545071
0.000490463
0.000524964
0.000546508
0.000524524
0.000540356
0.000485217
0.000519772
0.000546318
0.000524322
0.000540158
0.000485015
0.000519563
0.000545057
0.000522982
0.00053885
0.000483667
0.000518194
0.000544957
0.000522876
0.000538744
0.000483561
0.000518083
0.000544481
0.000522374
0.000538248
0.000483057
0.000517565
0.000544436
0.000522327
0.000538201
0.00048301
0.000517516
0.000544257
0.000522138
0.000538014
0.000482821
0.00051732
0.000544241
0.000522121
0.000537997
0.000482803
0.000517302
0.000544195
0.000522072
0.000537949
0.000482755
0.000517251
0.000544195
0.000522072
0.000537949
0.000482755
0.000517251
0.000544241
0.000522121
0.000537997
0.000482803
0.000517302
0.000544257
0.000522138
0.000538014
0.000482821
0.00051732
0.000544436
0.000522327
0.000538201
0.00048301
0.000517516
0.000544481
0.000522374
0.000538248
0.000483057
0.000517565
0.000544957
0.000522876
0.000538744
0.000483561
0.000518083
0.000545057
0.000522982
0.00053885
0.000483667
0.000518194
0.000546318
0.000524322
0.000540158
0.000485015
0.000519563
0.000546508
0.000524524
0.000540356
0.000485217
0.000519772
0.000551049
0.000529477
0.000545071
0.000490463
0.000524964
0.000522721
0.000495649
0.000515197
0.000450319
0.000493089
0.000516859
0.000489703
0.000509265
0.000444569
0.000487011
0.000516612
0.00048946
0.000509016
0.000444346
0.000486765
0.000514991
0.000487848
0.000507372
0.000442853
0.00048515
0.000514861
0.00048772
0.00050724
0.000442736
0.00048502
0.000514251
0.000487117
0.000506618
0.000442179
0.00048441
0.000514194
0.000487061
0.00050656
0.000442127
0.000484352
0.000513964
0.000486834
0.000506325
0.000441917
0.000484122
0.000513943
0.000486814
0.000506304
0.000441898
0.000484101
0.000513884
0.000486756
0.000506244
0.000441844
0.000484041
0.000513884
0.000486756
0.000506244
0.000441844
0.000484041
0.000513943
0.000486814
0.000506304
0.000441898
0.000484101
0.000513964
0.000486834
0.000506325
0.000441917
0.000484122
0.000514194
0.000487061
0.00050656
0.000442127
0.000484352
0.000514251
0.000487117
0.000506618
0.000442179
0.00048441
0.000514861
0.00048772
0.00050724
0.000442736
0.00048502
0.000514991
0.000487848
0.000507372
0.000442853
0.00048515
0.000516612
0.00048946
0.000509016
0.000444346
0.000486765
0.000516859
0.000489703
0.000509265
0.000444569
0.000487011
0.000522721
0.000495649
0.000515197
0.000450319
0.000493089
0.000547601
0.000519027
0.000540019
0.000470763
0.000519396
0.000541443
0.000512769
0.000533784
0.000464707
0.000513027
0.000541181
0.00051251
0.000533519
0.000464471
0.000512766
0.00053945
0.000510786
0.000531763
0.000462872
0.000511039
0.000539312
0.00051065
0.000531622
0.000462747
0.0005109
0.00053866
0.000510005
0.000530957
0.00046215
0.000510248
0.000538599
0.000509945
0.000530895
0.000462095
0.000510186
0.000538353
0.000509702
0.000530644
0.00046187
0.000509939
0.000538331
0.00050968
0.000530621
0.00046185
0.000509917
0.000538268
0.000509618
0.000530557
0.000461792
0.000509853
0.000538268
0.000509618
0.000530557
0.000461792
0.000509853
0.000538331
0.00050968
0.000530621
0.00046185
0.000509917
0.000538353
0.000509702
0.000530644
0.00046187
0.000509939
0.000538599
0.000509945
0.000530895
0.000462095
0.000510186
0.00053866
0.000510005
0.000530957
0.00046215
0.000510248
0.000539312
0.00051065
0.000531622
0.000462747
0.0005109
0.00053945
0.000510786
0.000531763
0.000462872
0.000511039
0.000541181
0.00051251
0.000533519
0.000464471
0.000512766
0.000541443
0.000512769
0.000533784
0.000464707
0.000513027
0.000547601
0.000519027
0.000540019
0.000470763
0.000519396
0.000559654
0.000531941
0.000552811
0.000484231
0.000536275
0.000553741
0.000525875
0.000546807
0.000478288
0.00053011
0.000553487
0.000525622
0.000546549
0.000478053
0.000529853
0.000551787
0.000523914
0.00054482
0.000476451
0.000528137
0.000551652
0.00052378
0.000544682
0.000476326
0.000528
0.00055101
0.000523139
0.000544026
0.000475726
0.00052735
0.00055095
0.00052308
0.000543965
0.000475671
0.000527289
0.000550708
0.000522839
0.000543717
0.000475444
0.000527043
0.000550686
0.000522817
0.000543694
0.000475424
0.00052702
0.000550624
0.000522755
0.000543631
0.000475366
0.000526957
0.000550624
0.000522755
0.000543631
0.000475366
0.000526957
0.000550686
0.000522817
0.000543694
0.000475424
0.00052702
0.000550708
0.000522839
0.000543717
0.000475444
0.000527043
0.00055095
0.00052308
0.000543965
0.000475671
0.000527289
0.00055101
0.000523139
0.000544026
0.000475726
0.00052735
0.000551652
0.00052378
0.000544682
0.000476326
0.000528
0.000551787
0.000523914
0.00054482
0.000476451
0.000528137
0.000553487
0.000525622
0.000546549
0.000478053
0.000529853
0.000553741
0.000525875
0.000546807
0.000478288
0.00053011
0.000559654
0.000531941
0.000552811
0.000484231
0.000536275
0.000558809
0.00053194
0.000552672
0.00048526
0.000540536
0.000553121
0.000526091
0.000546894
0.000479508
0.000534608
0.000552874
0.000525845
0.000546644
0.000479278
0.000534357
0.000551204
0.000524164
0.000544945
0.000477693
0.000532663
0.000551073
0.000524033
0.00054481
0.00047757
0.000532528
0.00055044
0.0005234
0.000544163
0.000476976
0.000531885
0.000550382
0.000523342
0.000544103
0.000476921
0.000531824
0.000550142
0.000523103
0.000543859
0.000476696
0.000531581
0.000550121
0.000523082
0.000543837
0.000476676
0.000531559
0.00055006
0.000523021
0.000543774
0.000476618
0.000531496
0.00055006
0.000523021
0.000543774
0.000476618
0.000531496
0.000550121
0.000523082
0.000543837
0.000476676
0.000531559
0.000550142
0.000523103
0.000543859
0.000476696
0.000531581
0.000550382
0.000523342
0.000544103
0.000476921
0.000531824
0.00055044
0.0005234
0.000544163
0.000476976
0.000531885
0.000551073
0.000524033
0.00054481
0.00047757
0.000532528
0.000551204
0.000524164
0.000544945
0.000477693
0.000532663
0.000552874
0.000525845
0.000546644
0.000479278
0.000534357
0.000553121
0.000526091
0.000546894
0.000479508
0.000534608
0.000558809
0.00053194
0.000552672
0.00048526
0.000540536
0.000555882
0.000529406
0.000550281
0.000483331
0.000542016
0.000550309
0.000523686
0.000544627
0.000477713
0.000536236
0.000550066
0.000523444
0.000544381
0.000477488
0.000535989
0.0005484
0.000521768
0.000542687
0.000475908
0.000534298
0.000548269
0.000521639
0.000542553
0.000475786
0.000534164
0.000547636
0.000521007
0.000541907
0.000475193
0.000533521
0.000547578
0.000520949
0.000541847
0.000475138
0.00053346
0.000547339
0.00052071
0.000541602
0.000474914
0.000533216
0.000547318
0.00052069
0.000541581
0.000474894
0.000533194
0.000547256
0.000520628
0.000541518
0.000474836
0.000533132
0.000547256
0.000520628
0.000541518
0.000474836
0.000533132
0.000547318
0.00052069
0.000541581
0.000474894
0.000533194
0.000547339
0.00052071
0.000541602
0.000474914
0.000533216
0.000547578
0.000520949
0.000541847
0.000475138
0.00053346
0.000547636
0.000521007
0.000541907
0.000475193
0.000533521
0.000548269
0.000521639
0.000542553
0.000475786
0.000534164
0.0005484
0.000521768
0.000542687
0.000475908
0.000534298
0.000550066
0.000523444
0.000544381
0.000477488
0.000535989
0.000550309
0.000523686
0.000544627
0.000477713
0.000536236
0.000555882
0.000529406
0.000550281
0.000483331
0.000542016
0.000554497
0.000528266
0.000549373
0.000482633
0.000544371
0.000549008
0.000522642
0.000543811
0.000477117
0.000538698
0.000548767
0.000522402
0.000543567
0.000476894
0.000538452
0.000547097
0.000520725
0.000541869
0.000475313
0.000536756
0.000546966
0.000520595
0.000541736
0.000475192
0.000536622
0.000546331
0.000519962
0.000541088
0.000474596
0.000535976
0.000546273
0.000519904
0.000541028
0.000474542
0.000535916
0.000546032
0.000519664
0.000540782
0.000474316
0.00053567
0.000546011
0.000519643
0.00054076
0.000474296
0.000535648
0.000545949
0.000519582
0.000540697
0.000474238
0.000535585
0.000545949
0.000519582
0.000540697
0.000474238
0.000535585
0.000546011
0.000519643
0.00054076
0.000474296
0.000535648
0.000546032
0.000519664
0.000540782
0.000474316
0.00053567
0.000546273
0.000519904
0.000541028
0.000474542
0.000535916
0.000546331
0.000519962
0.000541088
0.000474596
0.000535976
0.000546966
0.000520595
0.000541736
0.000475192
0.000536622
0.000547097
0.000520725
0.000541869
0.000475313
0.000536756
0.000548767
0.000522402
0.000543567
0.000476894
0.000538452
0.000549008
0.000522642
0.000543811
0.000477117
0.000538698
0.000554497
0.000528266
0.000549373
0.000482633
0.000544371
0.000554015
0.000528054
0.000549366
0.000482945
0.000546997
0.000548617
0.000522528
0.0005439
0.000477526
0.000541419
0.000548379
0.000522291
0.000543659
0.000477305
0.000541176
0.000546707
0.000520613
0.000541961
0.000475722
0.000539475
0.000546577
0.000520485
0.000541828
0.000475602
0.000539342
0.00054594
0.000519849
0.000541178
0.000475004
0.000538692
0.000545882
0.000519792
0.000541119
0.00047495
0.000538632
0.00054564
0.000519551
0.000540872
0.000474723
0.000538385
0.000545619
0.00051953
0.00054085
0.000474704
0.000538363
0.000545557
0.000519468
0.000540786
0.000474645
0.000538299
0.000545557
0.000519468
0.000540786
0.000474645
0.000538299
0.000545619
0.00051953
0.00054085
0.000474704
0.000538363
0.00054564
0.000519551
0.000540872
0.000474723
0.000538385
0.000545882
0.000519792
0.000541119
0.00047495
0.000538632
0.00054594
0.000519849
0.000541178
0.000475004
0.000538692
0.000546577
0.000520485
0.000541828
0.000475602
0.000539342
0.000546707
0.000520613
0.000541961
0.000475722
0.000539475
0.000548379
0.000522291
0.000543659
0.000477305
0.000541176
0.000548617
0.000522528
0.0005439
0.000477526
0.000541419
0.000554015
0.000528054
0.000549366
0.000482945
0.000546997
0.000553589
0.000527924
0.00054941
0.00048344
0.000548756
0.000548288
0.000522501
0.000544047
0.00047812
0.00054326
0.000548053
0.000522267
0.000543808
0.000477902
0.000543019
0.000546382
0.000520591
0.000542112
0.000476319
0.000541314
0.000546253
0.000520463
0.00054198
0.000476198
0.00054118
0.000545614
0.000519827
0.000541329
0.000475599
0.000540528
0.000545556
0.00051977
0.00054127
0.000475545
0.000540467
0.000545314
0.000519528
0.000541022
0.000475318
0.000540219
0.000545293
0.000519507
0.000541
0.000475298
0.000540197
0.00054523
0.000519445
0.000540937
0.00047524
0.000540133
0.00054523
0.000519445
0.000540937
0.00047524
0.000540133
0.000545293
0.000519507
0.000541
0.000475298
0.000540197
0.000545314
0.000519528
0.000541022
0.000475318
0.000540219
0.000545556
0.00051977
0.00054127
0.000475545
0.000540467
0.000545614
0.000519827
0.000541329
0.000475599
0.000540528
0.000546253
0.000520463
0.00054198
0.000476198
0.00054118
0.000546382
0.000520591
0.000542112
0.000476319
0.000541314
0.000548053
0.000522267
0.000543808
0.000477902
0.000543019
0.000548288
0.000522501
0.000544047
0.00047812
0.00054326
0.000553589
0.000527924
0.00054941
0.00048344
0.000548756
0.000553041
0.000527668
0.000549317
0.000483822
0.000547327
0.000547837
0.000522348
0.000544054
0.000478601
0.000541924
0.000547604
0.000522117
0.000543819
0.000478385
0.000541686
0.000545935
0.000520443
0.000542125
0.000476803
0.000539983
0.000545807
0.000520316
0.000541994
0.000476683
0.00053985
0.000545167
0.000519679
0.000541342
0.000476083
0.000539197
0.00054511
0.000519622
0.000541283
0.000476029
0.000539137
0.000544867
0.00051938
0.000541035
0.000475801
0.000538888
0.000544846
0.00051936
0.000541013
0.000475781
0.000538866
0.000544783
0.000519297
0.000540949
0.000475722
0.000538801
0.000544783
0.000519297
0.000540949
0.000475722
0.000538801
0.000544846
0.00051936
0.000541013
0.000475781
0.000538866
0.000544867
0.00051938
0.000541035
0.000475801
0.000538888
0.00054511
0.000519622
0.000541283
0.000476029
0.000539137
0.000545167
0.000519679
0.000541342
0.000476083
0.000539197
0.000545807
0.000520316
0.000541994
0.000476683
0.00053985
0.000545935
0.000520443
0.000542125
0.000476803
0.000539983
0.000547604
0.000522117
0.000543819
0.000478385
0.000541686
0.000547837
0.000522348
0.000544054
0.000478601
0.000541924
0.000553041
0.000527668
0.000549317
0.000483822
0.000547327
0.000552459
0.000527365
0.000549169
0.00048407
0.000544991
0.000547348
0.000522144
0.000544005
0.000478946
0.000539685
0.000547118
0.000521915
0.000543773
0.000478733
0.00053945
0.000545451
0.000520244
0.000542082
0.000477151
0.000537752
0.000545324
0.000520118
0.000541951
0.000477032
0.00053762
0.000544683
0.000519481
0.000541299
0.000476431
0.000536966
0.000544626
0.000519424
0.00054124
0.000476377
0.000536907
0.000544382
0.000519182
0.000540991
0.000476148
0.000536657
0.000544361
0.000519161
0.000540969
0.000476129
0.000536635
0.000544298
0.000519098
0.000540905
0.000476069
0.000536571
0.000544298
0.000519098
0.000540905
0.000476069
0.000536571
0.000544361
0.000519161
0.000540969
0.000476129
0.000536635
0.000544382
0.000519182
0.000540991
0.000476148
0.000536657
0.000544626
0.000519424
0.00054124
0.000476377
0.000536907
0.000544683
0.000519481
0.000541299
0.000476431
0.000536966
0.000545324
0.000520118
0.000541951
0.000477032
0.00053762
0.000545451
0.000520244
0.000542082
0.000477151
0.000537752
0.000547118
0.000521915
0.000543773
0.000478733
0.00053945
0.000547348
0.000522144
0.000544005
0.000478946
0.000539685
0.000552459
0.000527365
0.000549169
0.00048407
0.000544991
0.000551904
0.000527076
0.000549031
0.000484231
0.000542926
0.000546883
0.000521951
0.000543962
0.000479202
0.000537714
0.000546655
0.000521725
0.000543732
0.000478991
0.000537481
0.000544991
0.000520058
0.000542045
0.000477411
0.000535788
0.000544864
0.000519932
0.000541915
0.000477293
0.000535657
0.000544223
0.000519294
0.000541262
0.000476691
0.000535004
0.000544166
0.000519238
0.000541203
0.000476637
0.000534944
0.000543921
0.000518995
0.000540954
0.000476408
0.000534694
0.000543901
0.000518974
0.000540932
0.000476388
0.000534673
0.000543838
0.000518911
0.000540868
0.000476329
0.000534608
0.000543838
0.000518911
0.000540868
0.000476329
0.000534608
0.000543901
0.000518974
0.000540932
0.000476388
0.000534673
0.000543921
0.000518995
0.000540954
0.000476408
0.000534694
0.000544166
0.000519238
0.000541203
0.000476637
0.000534944
0.000544223
0.000519294
0.000541262
0.000476691
0.000535004
0.000544864
0.000519932
0.000541915
0.000477293
0.000535657
0.000544991
0.000520058
0.000542045
0.000477411
0.000535788
0.000546655
0.000521725
0.000543732
0.000478991
0.000537481
0.000546883
0.000521951
0.000543962
0.000479202
0.000537714
0.000551904
0.000527076
0.000549031
0.000484231
0.000542926
0.000551379
0.00052681
0.000548909
0.000484327
0.000541133
0.000546447
0.000521779
0.000543934
0.000479391
0.000536011
0.000546222
0.000521556
0.000543707
0.000479182
0.000535781
0.00054456
0.000519891
0.000542022
0.000477605
0.000534093
0.000544434
0.000519767
0.000541894
0.000477487
0.000533963
0.000543792
0.000519128
0.00054124
0.000476884
0.000533309
0.000543735
0.000519072
0.000541181
0.000476831
0.00053325
0.00054349
0.000518828
0.000540931
0.000476601
0.000533
0.000543469
0.000518808
0.00054091
0.000476581
0.000532978
0.000543406
0.000518745
0.000540845
0.000476522
0.000532913
0.000543406
0.000518745
0.000540845
0.000476522
0.000532913
0.000543469
0.000518808
0.00054091
0.000476581
0.000532978
0.00054349
0.000518828
0.000540931
0.000476601
0.000533
0.000543735
0.000519072
0.000541181
0.000476831
0.00053325
0.000543792
0.000519128
0.00054124
0.000476884
0.000533309
0.000544434
0.000519767
0.000541894
0.000477487
0.000533963
0.00054456
0.000519891
0.000542022
0.000477605
0.000534093
0.000546222
0.000521556
0.000543707
0.000479182
0.000535781
0.000546447
0.000521779
0.000543934
0.000479391
0.000536011
0.000551379
0.00052681
0.000548909
0.000484327
0.000541133
0.000550875
0.000526558
0.000548797
0.000484357
0.000539404
0.00054603
0.000521619
0.000543914
0.000479513
0.000534371
0.000545808
0.000521398
0.000543689
0.000479307
0.000534144
0.000544149
0.000519737
0.000542008
0.000477732
0.00053246
0.000544024
0.000519613
0.00054188
0.000477616
0.000532331
0.000543381
0.000518974
0.000541226
0.000477012
0.000531677
0.000543324
0.000518918
0.000541168
0.000476959
0.000531618
0.000543079
0.000518675
0.000540917
0.000476728
0.000531368
0.000543058
0.000518654
0.000540896
0.000476709
0.000531346
0.000542995
0.000518591
0.000540831
0.000476649
0.000531281
0.000542995
0.000518591
0.000540831
0.000476649
0.000531281
0.000543058
0.000518654
0.000540896
0.000476709
0.000531346
0.000543079
0.000518675
0.000540917
0.000476728
0.000531368
0.000543324
0.000518918
0.000541168
0.000476959
0.000531618
0.000543381
0.000518974
0.000541226
0.000477012
0.000531677
0.000544024
0.000519613
0.00054188
0.000477616
0.000532331
0.000544149
0.000519737
0.000542008
0.000477732
0.00053246
0.000545808
0.000521398
0.000543689
0.000479307
0.000534144
0.00054603
0.000521619
0.000543914
0.000479513
0.000534371
0.000550875
0.000526558
0.000548797
0.000484357
0.000539404
0.000550389
0.000526316
0.000548692
0.00048432
0.000537669
0.000545629
0.000521466
0.000543898
0.000479566
0.000532722
0.000545409
0.000521248
0.000543676
0.000479362
0.000532498
0.000543754
0.000519591
0.000541999
0.000477791
0.00053082
0.000543629
0.000519468
0.000541872
0.000477675
0.000530692
0.000542986
0.000518829
0.000541217
0.000477071
0.000530038
0.00054293
0.000518773
0.000541159
0.000477018
0.000529979
0.000542683
0.000518529
0.000540908
0.000476787
0.000529728
0.000542663
0.000518508
0.000540886
0.000476768
0.000529707
0.000542599
0.000518445
0.000540821
0.000476708
0.000529642
0.000542599
0.000518445
0.000540821
0.000476708
0.000529642
0.000542663
0.000518508
0.000540886
0.000476768
0.000529707
0.000542683
0.000518529
0.000540908
0.000476787
0.000529728
0.00054293
0.000518773
0.000541159
0.000477018
0.000529979
0.000542986
0.000518829
0.000541217
0.000477071
0.000530038
0.000543629
0.000519468
0.000541872
0.000477675
0.000530692
0.000543754
0.000519591
0.000541999
0.000477791
0.00053082
0.000545409
0.000521248
0.000543676
0.000479362
0.000532498
0.000545629
0.000521466
0.000543898
0.000479566
0.000532722
0.000550389
0.000526316
0.000548692
0.00048432
0.000537669
0.00054992
0.000526083
0.000548594
0.000484215
0.00053594
0.000545243
0.000521321
0.000543888
0.000479551
0.000531077
0.000545025
0.000521106
0.000543668
0.000479349
0.000530856
0.000543374
0.000519453
0.000541995
0.000477782
0.000529184
0.00054325
0.000519331
0.000541869
0.000477667
0.000529057
0.000542606
0.000518691
0.000541214
0.000477062
0.000528403
0.00054255
0.000518636
0.000541156
0.00047701
0.000528344
0.000542304
0.000518391
0.000540905
0.000476778
0.000528093
0.000542283
0.000518371
0.000540884
0.000476759
0.000528072
0.000542219
0.000518307
0.000540818
0.000476699
0.000528006
0.000542219
0.000518307
0.000540818
0.000476699
0.000528006
0.000542283
0.000518371
0.000540884
0.000476759
0.000528072
0.000542304
0.000518391
0.000540905
0.000476778
0.000528093
0.00054255
0.000518636
0.000541156
0.00047701
0.000528344
0.000542606
0.000518691
0.000541214
0.000477062
0.000528403
0.00054325
0.000519331
0.000541869
0.000477667
0.000529057
0.000543374
0.000519453
0.000541995
0.000477782
0.000529184
0.000545025
0.000521106
0.000543668
0.000479349
0.000530856
0.000545243
0.000521321
0.000543888
0.000479551
0.000531077
0.00054992
0.000526083
0.000548594
0.000484215
0.00053594
0.000549469
0.000525861
0.000548507
0.000484045
0.000534232
0.000544873
0.000521185
0.000543885
0.000479467
0.00052945
0.000544657
0.000520972
0.000543668
0.000479268
0.000529232
0.00054301
0.000519323
0.000542
0.000477706
0.000527566
0.000542887
0.000519202
0.000541875
0.000477591
0.00052744
0.000542243
0.000518562
0.000541219
0.000476987
0.000526786
0.000542187
0.000518507
0.000541162
0.000476934
0.000526728
0.00054194
0.000518262
0.00054091
0.000476703
0.000526476
0.00054192
0.000518242
0.000540889
0.000476683
0.000526455
0.000541856
0.000518178
0.000540824
0.000476623
0.00052639
0.000541856
0.000518178
0.000540824
0.000476623
0.00052639
0.00054192
0.000518242
0.000540889
0.000476683
0.000526455
0.00054194
0.000518262
0.00054091
0.000476703
0.000526476
0.000542187
0.000518507
0.000541162
0.000476934
0.000526728
0.000542243
0.000518562
0.000541219
0.000476987
0.000526786
0.000542887
0.000519202
0.000541875
0.000477591
0.00052744
0.00054301
0.000519323
0.000542
0.000477706
0.000527566
0.000544657
0.000520972
0.000543668
0.000479268
0.000529232
0.000544873
0.000521185
0.000543885
0.000479467
0.00052945
0.000549469
0.000525861
0.000548507
0.000484045
0.000534232
0.000549034
0.00052565
0.00054843
0.000483808
0.000532472
0.000544518
0.000521057
0.000543893
0.000479317
0.00052777
0.000544305
0.000520847
0.000543678
0.00047912
0.000527554
0.000542662
0.000519203
0.000542014
0.000477563
0.000525895
0.00054254
0.000519083
0.00054189
0.000477449
0.00052577
0.000541895
0.000518442
0.000541234
0.000476845
0.000525116
0.00054184
0.000518388
0.000541177
0.000476793
0.000525059
0.000541592
0.000518142
0.000540925
0.000476561
0.000524807
0.000541572
0.000518122
0.000540904
0.000476541
0.000524786
0.000541508
0.000518059
0.000540838
0.000476481
0.000524721
0.000541508
0.000518059
0.000540838
0.000476481
0.000524721
0.000541572
0.000518122
0.000540904
0.000476541
0.000524786
0.000541592
0.000518142
0.000540925
0.000476561
0.000524807
0.00054184
0.000518388
0.000541177
0.000476793
0.000525059
0.000541895
0.000518442
0.000541234
0.000476845
0.000525116
0.00054254
0.000519083
0.00054189
0.000477449
0.00052577
0.000542662
0.000519203
0.000542014
0.000477563
0.000525895
0.000544305
0.000520847
0.000543678
0.00047912
0.000527554
0.000544518
0.000521057
0.000543893
0.000479317
0.00052777
0.000549034
0.00052565
0.00054843
0.000483808
0.000532472
-1.73061e-05
1.6849e-05
3.42014e-06
8.10061e-07
2.79756e-07
1.86278e-07
1.66742e-07
1.62811e-07
1.61892e-07
1.61682e-07
1.61621e-07
1.61595e-07
1.61496e-07
1.61386e-07
1.6052e-07
1.59852e-07
1.53416e-07
1.50646e-07
1.11917e-07
1.07812e-07
-1.74227e-05
1.68293e-05
3.45236e-06
8.19674e-07
2.82064e-07
1.86822e-07
1.66855e-07
1.62824e-07
1.61879e-07
1.61663e-07
1.61599e-07
1.61573e-07
1.61472e-07
1.6136e-07
1.60479e-07
1.59804e-07
1.53296e-07
1.50519e-07
1.11617e-07
1.076e-07
-1.74206e-05
1.68229e-05
3.45082e-06
8.19553e-07
2.82063e-07
1.86828e-07
1.66857e-07
1.62825e-07
1.61879e-07
1.61663e-07
1.61599e-07
1.61572e-07
1.61472e-07
1.6136e-07
1.60478e-07
1.59803e-07
1.53295e-07
1.50517e-07
1.11614e-07
1.07598e-07
-1.74089e-05
1.67823e-05
3.44016e-06
8.18381e-07
2.81943e-07
1.86834e-07
1.66862e-07
1.62827e-07
1.61879e-07
1.61662e-07
1.61598e-07
1.61571e-07
1.6147e-07
1.61358e-07
1.60476e-07
1.598e-07
1.53287e-07
1.5051e-07
1.11602e-07
1.07592e-07
-1.74073e-05
1.67783e-05
3.43891e-06
8.18197e-07
2.8191e-07
1.8683e-07
1.66862e-07
1.62827e-07
1.61879e-07
1.61662e-07
1.61598e-07
1.61571e-07
1.6147e-07
1.61358e-07
1.60476e-07
1.598e-07
1.53287e-07
1.5051e-07
1.11602e-07
1.07592e-07
-1.74013e-05
1.67625e-05
3.4341e-06
8.17513e-07
2.8179e-07
1.86813e-07
1.66859e-07
1.62826e-07
1.61879e-07
1.61662e-07
1.61598e-07
1.61571e-07
1.6147e-07
1.61358e-07
1.60475e-07
1.598e-07
1.53287e-07
1.5051e-07
1.11601e-07
1.07592e-07
-1.74006e-05
1.67608e-05
3.43357e-06
8.17432e-07
2.81774e-07
1.86811e-07
1.66859e-07
1.62826e-07
1.61879e-07
1.61662e-07
1.61598e-07
1.61571e-07
1.6147e-07
1.61358e-07
1.60475e-07
1.598e-07
1.53287e-07
1.5051e-07
1.11601e-07
1.07592e-07
-1.73986e-05
1.6755e-05
3.43189e-06
8.17193e-07
2.81731e-07
1.86804e-07
1.66857e-07
1.62826e-07
1.61879e-07
1.61662e-07
1.61598e-07
1.61571e-07
1.6147e-07
1.61358e-07
1.60475e-07
1.59799e-07
1.53287e-07
1.5051e-07
1.11601e-07
1.07592e-07
-1.73984e-05
1.67544e-05
3.43172e-06
8.17166e-07
2.81726e-07
1.86804e-07
1.66857e-07
1.62826e-07
1.61879e-07
1.61662e-07
1.61598e-07
1.61571e-07
1.6147e-07
1.61358e-07
1.60475e-07
1.59799e-07
1.53287e-07
1.5051e-07
1.11601e-07
1.07592e-07
-1.73979e-05
1.6753e-05
3.43132e-06
8.1711e-07
2.81716e-07
1.86802e-07
1.66857e-07
1.62826e-07
1.61879e-07
1.61662e-07
1.61598e-07
1.61571e-07
1.6147e-07
1.61358e-07
1.60475e-07
1.59799e-07
1.53287e-07
1.5051e-07
1.11601e-07
1.07592e-07
-1.73979e-05
1.6753e-05
3.43132e-06
8.1711e-07
2.81716e-07
1.86802e-07
1.66857e-07
1.62826e-07
1.61879e-07
1.61662e-07
1.61598e-07
1.61571e-07
1.6147e-07
1.61358e-07
1.60475e-07
1.59799e-07
1.53287e-07
1.5051e-07
1.11601e-07
1.07592e-07
-1.73984e-05
1.67544e-05
3.43172e-06
8.17166e-07
2.81726e-07
1.86804e-07
1.66857e-07
1.62826e-07
1.61879e-07
1.61662e-07
1.61598e-07
1.61571e-07
1.6147e-07
1.61358e-07
1.60475e-07
1.59799e-07
1.53287e-07
1.5051e-07
1.11601e-07
1.07592e-07
-1.73986e-05
1.6755e-05
3.43189e-06
8.17193e-07
2.81731e-07
1.86804e-07
1.66857e-07
1.62826e-07
1.61879e-07
1.61662e-07
1.61598e-07
1.61571e-07
1.6147e-07
1.61358e-07
1.60475e-07
1.59799e-07
1.53287e-07
1.5051e-07
1.11601e-07
1.07592e-07
-1.74006e-05
1.67608e-05
3.43357e-06
8.17432e-07
2.81774e-07
1.86811e-07
1.66859e-07
1.62826e-07
1.61879e-07
1.61662e-07
1.61598e-07
1.61571e-07
1.6147e-07
1.61358e-07
1.60475e-07
1.598e-07
1.53287e-07
1.5051e-07
1.11601e-07
1.07592e-07
-1.74013e-05
1.67625e-05
3.4341e-06
8.17513e-07
2.8179e-07
1.86813e-07
1.66859e-07
1.62826e-07
1.61879e-07
1.61662e-07
1.61598e-07
1.61571e-07
1.6147e-07
1.61358e-07
1.60475e-07
1.598e-07
1.53287e-07
1.5051e-07
1.11601e-07
1.07592e-07
-1.74073e-05
1.67783e-05
3.43891e-06
8.18197e-07
2.8191e-07
1.8683e-07
1.66862e-07
1.62827e-07
1.61879e-07
1.61662e-07
1.61598e-07
1.61571e-07
1.6147e-07
1.61358e-07
1.60476e-07
1.598e-07
1.53287e-07
1.5051e-07
1.11602e-07
1.07592e-07
-1.74089e-05
1.67823e-05
3.44016e-06
8.18381e-07
2.81943e-07
1.86834e-07
1.66862e-07
1.62827e-07
1.61879e-07
1.61662e-07
1.61598e-07
1.61571e-07
1.6147e-07
1.61358e-07
1.60476e-07
1.598e-07
1.53287e-07
1.5051e-07
1.11602e-07
1.07592e-07
-1.74206e-05
1.68229e-05
3.45082e-06
8.19553e-07
2.82063e-07
1.86828e-07
1.66857e-07
1.62825e-07
1.61879e-07
1.61663e-07
1.61599e-07
1.61572e-07
1.61472e-07
1.6136e-07
1.60478e-07
1.59803e-07
1.53295e-07
1.50517e-07
1.11614e-07
1.07598e-07
-1.74227e-05
1.68293e-05
3.45236e-06
8.19674e-07
2.82064e-07
1.86822e-07
1.66855e-07
1.62824e-07
1.61879e-07
1.61663e-07
1.61599e-07
1.61573e-07
1.61472e-07
1.6136e-07
1.60479e-07
1.59804e-07
1.53296e-07
1.50519e-07
1.11617e-07
1.076e-07
-1.73061e-05
1.6849e-05
3.42014e-06
8.10061e-07
2.79756e-07
1.86278e-07
1.66742e-07
1.62811e-07
1.61892e-07
1.61682e-07
1.61621e-07
1.61595e-07
1.61496e-07
1.61386e-07
1.6052e-07
1.59852e-07
1.53416e-07
1.50646e-07
1.11917e-07
1.07812e-07
-1.69428e-05
1.70316e-05
3.45152e-06
8.16608e-07
2.81022e-07
1.86549e-07
1.66798e-07
1.62884e-07
1.61984e-07
1.61771e-07
1.61709e-07
1.61682e-07
1.61582e-07
1.61471e-07
1.60565e-07
1.59835e-07
1.53334e-07
1.50538e-07
1.11322e-07
1.07189e-07
-1.7053e-05
1.70122e-05
3.48409e-06
8.26324e-07
2.83358e-07
1.87099e-07
1.66913e-07
1.62894e-07
1.61972e-07
1.61752e-07
1.61688e-07
1.61661e-07
1.61558e-07
1.61445e-07
1.60523e-07
1.59785e-07
1.53213e-07
1.5041e-07
1.11018e-07
1.06972e-07
-1.70506e-05
1.70057e-05
3.48254e-06
8.26202e-07
2.83357e-07
1.87106e-07
1.66915e-07
1.62895e-07
1.61972e-07
1.61752e-07
1.61687e-07
1.6166e-07
1.61558e-07
1.61444e-07
1.60522e-07
1.59784e-07
1.53211e-07
1.50409e-07
1.11015e-07
1.0697e-07
-1.70379e-05
1.69647e-05
3.47178e-06
8.25019e-07
2.83235e-07
1.87112e-07
1.6692e-07