/*--------------------------------*- C++ -*----------------------------------*\
  =========                 |
  \\      /  F ield         | OpenFOAM: The Open Source CFD Toolbox
   \\    /   O peration     | Website:  https://openfoam.org
    \\  /    A nd           | Version:  8
     \\/     M anipulation  |
\*---------------------------------------------------------------------------*/
FoamFile
{
    version     2.0;
    format      ascii;
    class       volScalarField;
    location    "5";
    object      p;
}
// * * * * * * * * * * * * * * * * * * * * * * * * * * * * * * * * * * * * * //

dimensions      [0 2 -2 0 0 0 0];

internalField   nonuniform List<scalar> 
180000
(
0.000905725
0.000844589
0.00088308
0.000752249
0.000821571
0.000891127
0.000830226
0.000868432
0.000738939
0.000807107
0.000890249
0.000829389
0.000867554
0.000738206
0.000806281
0.000885866
0.000825175
0.000863154
0.000734492
0.000802154
0.000885231
0.000824572
0.000862516
0.000733963
0.000801555
0.000883176
0.00082261
0.000860448
0.000732241
0.00079962
0.000882811
0.000822262
0.000860079
0.000731936
0.000799273
0.000881856
0.000821352
0.000859116
0.000731137
0.000798372
0.000881698
0.000821201
0.000858956
0.000731004
0.00079822
0.000881418
0.000820935
0.000858674
0.00073077
0.000797956
0.000881418
0.000820935
0.000858674
0.00073077
0.000797956
0.000881698
0.000821201
0.000858956
0.000731004
0.00079822
0.000881856
0.000821352
0.000859116
0.000731137
0.000798372
0.000882811
0.000822262
0.000860079
0.000731936
0.000799273
0.000883176
0.00082261
0.000860448
0.000732241
0.00079962
0.000885231
0.000824572
0.000862516
0.000733963
0.000801555
0.000885866
0.000825175
0.000863154
0.000734492
0.000802154
0.000890249
0.000829389
0.000867554
0.000738206
0.000806281
0.000891127
0.000830226
0.000868432
0.000738939
0.000807107
0.000905725
0.000844589
0.00088308
0.000752249
0.000821571
0.000737031
0.000709022
0.000727595
0.000658799
0.000697954
0.000730738
0.000701926
0.000720937
0.00065103
0.000690468
0.000730351
0.000701504
0.00072053
0.000650595
0.000690032
0.000728376
0.00069934
0.000718443
0.000648353
0.000687813
0.00072809
0.00069903
0.000718141
0.000648034
0.000687492
0.000727156
0.000698014
0.000717151
0.000646989
0.000686444
0.00072699
0.000697835
0.000716975
0.000646805
0.000686257
0.000726553
0.000697362
0.000716512
0.000646318
0.000685767
0.000726481
0.000697284
0.000716436
0.000646238
0.000685686
0.000726353
0.000697145
0.0007163
0.000646095
0.000685542
0.000726353
0.000697145
0.0007163
0.000646095
0.000685542
0.000726481
0.000697284
0.000716436
0.000646238
0.000685686
0.000726553
0.000697362
0.000716512
0.000646318
0.000685767
0.00072699
0.000697835
0.000716975
0.000646805
0.000686257
0.000727156
0.000698014
0.000717151
0.000646989
0.000686444
0.00072809
0.00069903
0.000718141
0.000648034
0.000687492
0.000728376
0.00069934
0.000718443
0.000648353
0.000687813
0.000730351
0.000701504
0.00072053
0.000650595
0.000690032
0.000730738
0.000701926
0.000720937
0.00065103
0.000690468
0.000737031
0.000709022
0.000727595
0.000658799
0.000697954
0.000529311
0.00050697
0.000522231
0.000468301
0.000501324
0.000524231
0.000501524
0.00051697
0.000462644
0.000495647
0.000523918
0.000501199
0.000516647
0.000462324
0.000495314
0.000522294
0.000499502
0.000514965
0.000460647
0.000493589
0.000522062
0.000499261
0.000514724
0.000460412
0.000493341
0.000521295
0.000498466
0.000513928
0.000459631
0.000492528
0.00052116
0.000498327
0.000513787
0.000459494
0.000492383
0.000520803
0.000497957
0.000513416
0.000459131
0.000492004
0.000520744
0.000497897
0.000513355
0.000459071
0.00049194
0.00052064
0.000497788
0.000513246
0.000458965
0.000491829
0.00052064
0.000497788
0.000513246
0.000458965
0.000491829
0.000520744
0.000497897
0.000513355
0.000459071
0.00049194
0.000520803
0.000497957
0.000513416
0.000459131
0.000492004
0.00052116
0.000498327
0.000513787
0.000459494
0.000492383
0.000521295
0.000498466
0.000513928
0.000459631
0.000492528
0.000522062
0.000499261
0.000514724
0.000460412
0.000493341
0.000522294
0.000499502
0.000514965
0.000460647
0.000493589
0.000523918
0.000501199
0.000516647
0.000462324
0.000495314
0.000524231
0.000501524
0.00051697
0.000462644
0.000495647
0.000529311
0.00050697
0.000522231
0.000468301
0.000501324
0.000495172
0.000468941
0.000486953
0.000426071
0.000465525
0.000489085
0.000462777
0.000480787
0.000420111
0.000459231
0.000488709
0.000462407
0.000480407
0.000419773
0.000458858
0.000486759
0.000460475
0.00047843
0.000417984
0.000456924
0.000486481
0.000460202
0.000478147
0.000417734
0.000456647
0.000485563
0.000459299
0.000477214
0.000416903
0.000455737
0.000485402
0.000459141
0.00047705
0.000416757
0.000455576
0.000484976
0.000458722
0.000476615
0.000416371
0.000455152
0.000484906
0.000458653
0.000476544
0.000416308
0.000455081
0.000484781
0.00045853
0.000476416
0.000416195
0.000454957
0.000484781
0.00045853
0.000476416
0.000416195
0.000454957
0.000484906
0.000458653
0.000476544
0.000416308
0.000455081
0.000484976
0.000458722
0.000476615
0.000416371
0.000455152
0.000485402
0.000459141
0.00047705
0.000416757
0.000455576
0.000485563
0.000459299
0.000477214
0.000416903
0.000455737
0.000486481
0.000460202
0.000478147
0.000417734
0.000456647
0.000486759
0.000460475
0.00047843
0.000417984
0.000456924
0.000488709
0.000462407
0.000480407
0.000419773
0.000458858
0.000489085
0.000462777
0.000480787
0.000420111
0.000459231
0.000495172
0.000468941
0.000486953
0.000426071
0.000465525
0.000518306
0.000490577
0.000509965
0.000444909
0.00048997
0.000511893
0.000484079
0.000503468
0.000438637
0.000483358
0.000511492
0.000483685
0.000503063
0.000438276
0.000482961
0.000509407
0.000481617
0.000500948
0.000436364
0.000480889
0.00050911
0.000481326
0.000500646
0.000436097
0.000480594
0.000508128
0.000480359
0.000499648
0.000435208
0.000479618
0.000507956
0.00048019
0.000499472
0.000435053
0.000479446
0.000507499
0.000479741
0.000499007
0.000434639
0.000478991
0.000507424
0.000479668
0.00049893
0.000434572
0.000478916
0.00050729
0.000479536
0.000498794
0.000434451
0.000478783
0.00050729
0.000479536
0.000498794
0.000434451
0.000478783
0.000507424
0.000479668
0.00049893
0.000434572
0.000478916
0.000507499
0.000479741
0.000499007
0.000434639
0.000478991
0.000507956
0.00048019
0.000499472
0.000435053
0.000479446
0.000508128
0.000480359
0.000499648
0.000435208
0.000479618
0.00050911
0.000481326
0.000500646
0.000436097
0.000480594
0.000509407
0.000481617
0.000500948
0.000436364
0.000480889
0.000511492
0.000483685
0.000503063
0.000438276
0.000482961
0.000511893
0.000484079
0.000503468
0.000438637
0.000483358
0.000518306
0.000490577
0.000509965
0.000444909
0.00048997
0.000531075
0.000503936
0.000523401
0.000458449
0.000507113
0.00052485
0.000497581
0.000517078
0.000452254
0.000500648
0.000524457
0.000497191
0.000516679
0.000451893
0.000500253
0.000522389
0.000495127
0.000514578
0.000449966
0.000498176
0.000522096
0.000494837
0.000514279
0.000449697
0.000497881
0.000521122
0.000493871
0.000513285
0.0004488
0.000496902
0.000520951
0.000493703
0.000513111
0.000448644
0.000496729
0.000520498
0.000493254
0.000512648
0.000448226
0.000496272
0.000520424
0.000493181
0.000512572
0.000448158
0.000496197
0.000520291
0.00049305
0.000512436
0.000448036
0.000496063
0.000520291
0.00049305
0.000512436
0.000448036
0.000496063
0.000520424
0.000493181
0.000512572
0.000448158
0.000496197
0.000520498
0.000493254
0.000512648
0.000448226
0.000496272
0.000520951
0.000493703
0.000513111
0.000448644
0.000496729
0.000521122
0.000493871
0.000513285
0.0004488
0.000496902
0.000522096
0.000494837
0.000514279
0.000449697
0.000497881
0.000522389
0.000495127
0.000514578
0.000449966
0.000498176
0.000524457
0.000497191
0.000516679
0.000451893
0.000500253
0.00052485
0.000497581
0.000517078
0.000452254
0.000500648
0.000531075
0.000503936
0.000523401
0.000458449
0.000507113
0.000530972
0.000504587
0.000524002
0.000459937
0.000511881
0.000524962
0.000498439
0.000517895
0.000453924
0.000505634
0.000524577
0.000498058
0.000517505
0.00045357
0.000505245
0.000522541
0.00049602
0.000515434
0.000451659
0.000503188
0.000522252
0.000495735
0.00051514
0.000451394
0.000502896
0.000521291
0.00049478
0.000514159
0.000450503
0.000501924
0.000521124
0.000494615
0.000513988
0.000450349
0.000501754
0.000520677
0.000494171
0.000513531
0.000449935
0.0005013
0.000520604
0.000494099
0.000513456
0.000449867
0.000501226
0.000520473
0.000493969
0.000513322
0.000449746
0.000501093
0.000520473
0.000493969
0.000513322
0.000449746
0.000501093
0.000520604
0.000494099
0.000513456
0.000449867
0.000501226
0.000520677
0.000494171
0.000513531
0.000449935
0.0005013
0.000521124
0.000494615
0.000513988
0.000450349
0.000501754
0.000521291
0.00049478
0.000514159
0.000450503
0.000501924
0.000522252
0.000495735
0.00051514
0.000451394
0.000502896
0.000522541
0.00049602
0.000515434
0.000451659
0.000503188
0.000524577
0.000498058
0.000517505
0.00045357
0.000505245
0.000524962
0.000498439
0.000517895
0.000453924
0.000505634
0.000530972
0.000504587
0.000524002
0.000459937
0.000511881
0.000528339
0.000502367
0.000521929
0.000458281
0.000513563
0.000522455
0.000496358
0.000515956
0.00045241
0.000507467
0.000522075
0.000495981
0.00051557
0.000452061
0.000507082
0.000520045
0.000493952
0.000513507
0.000450158
0.000505027
0.000519758
0.000493669
0.000513215
0.000449895
0.000504736
0.000518799
0.000492718
0.000512238
0.000449007
0.000503765
0.000518633
0.000492553
0.000512067
0.000448853
0.000503595
0.000518186
0.000492111
0.000511611
0.000448441
0.000503142
0.000518114
0.00049204
0.000511537
0.000448374
0.000503067
0.000517983
0.00049191
0.000511403
0.000448253
0.000502935
0.000517983
0.00049191
0.000511403
0.000448253
0.000502935
0.000518114
0.00049204
0.000511537
0.000448374
0.000503067
0.000518186
0.000492111
0.000511611
0.000448441
0.000503142
0.000518633
0.000492553
0.000512067
0.000448853
0.000503595
0.000518799
0.000492718
0.000512238
0.000449007
0.000503765
0.000519758
0.000493669
0.000513215
0.000449895
0.000504736
0.000520045
0.000493952
0.000513507
0.000450158
0.000505027
0.000522075
0.000495981
0.00051557
0.000452061
0.000507082
0.000522455
0.000496358
0.000515956
0.00045241
0.000507467
0.000528339
0.000502367
0.000521929
0.000458281
0.000513563
0.000527102
0.000501397
0.000521186
0.000457727
0.000515994
0.00052131
0.000495491
0.000515312
0.000451964
0.000510006
0.000520932
0.000495117
0.000514929
0.000451616
0.000509623
0.000518899
0.000493088
0.000512864
0.000449714
0.000507562
0.000518613
0.000492805
0.000512573
0.000449451
0.000507271
0.000517651
0.000491852
0.000511594
0.000448562
0.000506296
0.000517485
0.000491688
0.000511424
0.000448408
0.000506125
0.000517037
0.000491245
0.000510967
0.000447995
0.00050567
0.000516965
0.000491174
0.000510892
0.000447928
0.000505596
0.000516834
0.000491044
0.000510759
0.000447807
0.000505462
0.000516834
0.000491044
0.000510759
0.000447807
0.000505462
0.000516965
0.000491174
0.000510892
0.000447928
0.000505596
0.000517037
0.000491245
0.000510967
0.000447995
0.00050567
0.000517485
0.000491688
0.000511424
0.000448408
0.000506125
0.000517651
0.000491852
0.000511594
0.000448562
0.000506296
0.000518613
0.000492805
0.000512573
0.000449451
0.000507271
0.000518899
0.000493088
0.000512864
0.000449714
0.000507562
0.000520932
0.000495117
0.000514929
0.000451616
0.000509623
0.00052131
0.000495491
0.000515312
0.000451964
0.000510006
0.000527102
0.000501397
0.000521186
0.000457727
0.000515994
0.000526801
0.000501368
0.000521371
0.000458168
0.000518716
0.000521104
0.000495564
0.000515597
0.000452506
0.000512824
0.000520728
0.000495193
0.000515217
0.000452161
0.000512442
0.000518694
0.000493164
0.000513152
0.000450257
0.000510375
0.000518409
0.000492882
0.000512861
0.000449994
0.000510084
0.000517446
0.000491928
0.00051188
0.000449103
0.000509105
0.000517279
0.000491764
0.00051171
0.00044895
0.000508935
0.000516831
0.00049132
0.000511253
0.000448535
0.000508477
0.000516758
0.000491249
0.000511179
0.000448469
0.000508403
0.000516627
0.000491119
0.000511045
0.000448347
0.000508269
0.000516627
0.000491119
0.000511045
0.000448347
0.000508269
0.000516758
0.000491249
0.000511179
0.000448469
0.000508403
0.000516831
0.00049132
0.000511253
0.000448535
0.000508477
0.000517279
0.000491764
0.00051171
0.00044895
0.000508935
0.000517446
0.000491928
0.00051188
0.000449103
0.000509105
0.000518409
0.000492882
0.000512861
0.000449994
0.000510084
0.000518694
0.000493164
0.000513152
0.000450257
0.000510375
0.000520728
0.000495193
0.000515217
0.000452161
0.000512442
0.000521104
0.000495564
0.000515597
0.000452506
0.000512824
0.000526801
0.000501368
0.000521371
0.000458168
0.000518716
0.000526594
0.000501451
0.000521643
0.000458809
0.000520585
0.000520997
0.000495753
0.000515974
0.000453249
0.000514777
0.000520624
0.000495385
0.000515597
0.000452906
0.000514396
0.000518591
0.000493358
0.000513534
0.000451002
0.000512324
0.000518307
0.000493077
0.000513244
0.00045074
0.000512033
0.000517343
0.000492123
0.000512263
0.000449847
0.00051105
0.000517177
0.000491959
0.000512093
0.000449694
0.000510879
0.000516728
0.000491515
0.000511635
0.000449279
0.00051042
0.000516656
0.000491444
0.000511561
0.000449212
0.000510346
0.000516524
0.000491314
0.000511427
0.000449091
0.000510211
0.000516524
0.000491314
0.000511427
0.000449091
0.000510211
0.000516656
0.000491444
0.000511561
0.000449212
0.000510346
0.000516728
0.000491515
0.000511635
0.000449279
0.00051042
0.000517177
0.000491959
0.000512093
0.000449694
0.000510879
0.000517343
0.000492123
0.000512263
0.000449847
0.00051105
0.000518307
0.000493077
0.000513244
0.00045074
0.000512033
0.000518591
0.000493358
0.000513534
0.000451002
0.000512324
0.000520624
0.000495385
0.000515597
0.000452906
0.000514396
0.000520997
0.000495753
0.000515974
0.000453249
0.000514777
0.000526594
0.000501451
0.000521643
0.000458809
0.000520585
0.000526271
0.000501416
0.000521783
0.000459347
0.000519383
0.000520774
0.000495824
0.000516219
0.000453888
0.000513674
0.000520404
0.000495458
0.000515845
0.000453548
0.000513296
0.000518374
0.000493434
0.000513785
0.000451644
0.000511228
0.00051809
0.000493154
0.000513496
0.000451383
0.000510937
0.000517126
0.0004922
0.000512515
0.000450489
0.000509954
0.000516961
0.000492037
0.000512346
0.000450336
0.000509784
0.000516511
0.000491593
0.000511888
0.00044992
0.000509325
0.000516439
0.000491522
0.000511814
0.000449854
0.000509251
0.000516308
0.000491392
0.00051168
0.000449732
0.000509116
0.000516308
0.000491392
0.00051168
0.000449732
0.000509116
0.000516439
0.000491522
0.000511814
0.000449854
0.000509251
0.000516511
0.000491593
0.000511888
0.00044992
0.000509325
0.000516961
0.000492037
0.000512346
0.000450336
0.000509784
0.000517126
0.0004922
0.000512515
0.000450489
0.000509954
0.00051809
0.000493154
0.000513496
0.000451383
0.000510937
0.000518374
0.000493434
0.000513785
0.000451644
0.000511228
0.000520404
0.000495458
0.000515845
0.000453548
0.000513296
0.000520774
0.000495824
0.000516219
0.000453888
0.000513674
0.000526271
0.000501416
0.000521783
0.000459347
0.000519383
0.000525911
0.000501329
0.000521866
0.000459755
0.000517307
0.00052051
0.000495839
0.000516404
0.000454396
0.0005117
0.000520142
0.000495476
0.000516032
0.000454058
0.000511326
0.000518115
0.000493456
0.000513975
0.000452155
0.000509263
0.000517832
0.000493177
0.000513688
0.000451895
0.000508975
0.000516867
0.000492223
0.000512706
0.000451
0.000507993
0.000516703
0.00049206
0.000512538
0.000450848
0.000507823
0.000516253
0.000491616
0.000512079
0.000450431
0.000507365
0.000516181
0.000491545
0.000512006
0.000450365
0.000507291
0.000516049
0.000491415
0.000511871
0.000450243
0.000507156
0.000516049
0.000491415
0.000511871
0.000450243
0.000507156
0.000516181
0.000491545
0.000512006
0.000450365
0.000507291
0.000516253
0.000491616
0.000512079
0.000450431
0.000507365
0.000516703
0.00049206
0.000512538
0.000450848
0.000507823
0.000516867
0.000492223
0.000512706
0.000451
0.000507993
0.000517832
0.000493177
0.000513688
0.000451895
0.000508975
0.000518115
0.000493456
0.000513975
0.000452155
0.000509263
0.000520142
0.000495476
0.000516032
0.000454058
0.000511326
0.00052051
0.000495839
0.000516404
0.000454396
0.0005117
0.000525911
0.000501329
0.000521866
0.000459755
0.000517307
0.000525574
0.000501254
0.000521955
0.00046008
0.000515491
0.000520267
0.000495863
0.000516591
0.000454818
0.000509983
0.000519902
0.000495503
0.000516223
0.000454483
0.000509613
0.000517877
0.000493486
0.000514169
0.000452582
0.000507557
0.000517595
0.000493209
0.000513882
0.000452323
0.000507269
0.00051663
0.000492254
0.0005129
0.000451427
0.000506288
0.000516466
0.000492092
0.000512732
0.000451275
0.00050612
0.000516015
0.000491648
0.000512274
0.000450858
0.000505661
0.000515944
0.000491577
0.000512201
0.000450792
0.000505587
0.000515812
0.000491447
0.000512066
0.00045067
0.000505453
0.000515812
0.000491447
0.000512066
0.00045067
0.000505453
0.000515944
0.000491577
0.000512201
0.000450792
0.000505587
0.000516015
0.000491648
0.000512274
0.000450858
0.000505661
0.000516466
0.000492092
0.000512732
0.000451275
0.00050612
0.00051663
0.000492254
0.0005129
0.000451427
0.000506288
0.000517595
0.000493209
0.000513882
0.000452323
0.000507269
0.000517877
0.000493486
0.000514169
0.000452582
0.000507557
0.000519902
0.000495503
0.000516223
0.000454483
0.000509613
0.000520267
0.000495863
0.000516591
0.000454818
0.000509983
0.000525574
0.000501254
0.000521955
0.00046008
0.000515491
0.000525267
0.0005012
0.00052206
0.000460344
0.000513939
0.000520053
0.000495907
0.000516793
0.000455179
0.000508527
0.00051969
0.00049555
0.000516427
0.000454846
0.00050816
0.000517668
0.000493536
0.000514377
0.000452948
0.000506109
0.000517387
0.00049326
0.000514091
0.000452689
0.000505823
0.000516422
0.000492305
0.000513109
0.000451793
0.000504843
0.000516258
0.000492144
0.000512942
0.000451641
0.000504675
0.000515807
0.000491699
0.000512483
0.000451224
0.000504216
0.000515736
0.000491629
0.00051241
0.000451158
0.000504143
0.000515604
0.000491499
0.000512275
0.000451035
0.000504009
0.000515604
0.000491499
0.000512275
0.000451035
0.000504009
0.000515736
0.000491629
0.00051241
0.000451158
0.000504143
0.000515807
0.000491699
0.000512483
0.000451224
0.000504216
0.000516258
0.000492144
0.000512942
0.000451641
0.000504675
0.000516422
0.000492305
0.000513109
0.000451793
0.000504843
0.000517387
0.00049326
0.000514091
0.000452689
0.000505823
0.000517668
0.000493536
0.000514377
0.000452948
0.000506109
0.00051969
0.00049555
0.000516427
0.000454846
0.00050816
0.000520053
0.000495907
0.000516793
0.000455179
0.000508527
0.000525267
0.0005012
0.00052206
0.000460344
0.000513939
0.000524984
0.000501161
0.000522175
0.000460548
0.00051245
0.000519859
0.000495963
0.000517002
0.000455478
0.000507131
0.000519498
0.000495608
0.000516639
0.000455147
0.000506767
0.00051748
0.000493598
0.000514593
0.000453252
0.000504723
0.0005172
0.000493323
0.000514308
0.000452994
0.000504438
0.000516234
0.000492368
0.000513326
0.000452098
0.000503459
0.000516071
0.000492207
0.000513159
0.000451946
0.000503291
0.00051562
0.000491762
0.0005127
0.000451529
0.000502833
0.000515549
0.000491693
0.000512627
0.000451463
0.00050276
0.000515417
0.000491562
0.000512493
0.00045134
0.000502625
0.000515417
0.000491562
0.000512493
0.00045134
0.000502625
0.000515549
0.000491693
0.000512627
0.000451463
0.00050276
0.00051562
0.000491762
0.0005127
0.000451529
0.000502833
0.000516071
0.000492207
0.000513159
0.000451946
0.000503291
0.000516234
0.000492368
0.000513326
0.000452098
0.000503459
0.0005172
0.000493323
0.000514308
0.000452994
0.000504438
0.00051748
0.000493598
0.000514593
0.000453252
0.000504723
0.000519498
0.000495608
0.000516639
0.000455147
0.000506767
0.000519859
0.000495963
0.000517002
0.000455478
0.000507131
0.000524984
0.000501161
0.000522175
0.000460548
0.00051245
0.000524717
0.000501131
0.000522297
0.00046069
0.000510954
0.00051968
0.000496025
0.000517216
0.000455712
0.000505727
0.000519323
0.000495673
0.000516855
0.000455384
0.000505366
0.000517308
0.000493668
0.000514813
0.000453493
0.000503328
0.000517029
0.000493393
0.00051453
0.000453236
0.000503045
0.000516063
0.000492439
0.000513548
0.000452339
0.000502066
0.0005159
0.000492278
0.000513382
0.000452188
0.000501899
0.000515449
0.000491833
0.000512922
0.00045177
0.000501441
0.000515378
0.000491764
0.00051285
0.000451705
0.000501368
0.000515246
0.000491633
0.000512715
0.000451582
0.000501234
0.000515246
0.000491633
0.000512715
0.000451582
0.000501234
0.000515378
0.000491764
0.00051285
0.000451705
0.000501368
0.000515449
0.000491833
0.000512922
0.00045177
0.000501441
0.0005159
0.000492278
0.000513382
0.000452188
0.000501899
0.000516063
0.000492439
0.000513548
0.000452339
0.000502066
0.000517029
0.000493393
0.00051453
0.000453236
0.000503045
0.000517308
0.000493668
0.000514813
0.000453493
0.000503328
0.000519323
0.000495673
0.000516855
0.000455384
0.000505366
0.00051968
0.000496025
0.000517216
0.000455712
0.000505727
0.000524717
0.000501131
0.000522297
0.00046069
0.000510954
0.000524468
0.00050111
0.000522426
0.000460768
0.000509464
0.000519517
0.000496095
0.000517436
0.000455883
0.000504325
0.000519162
0.000495745
0.000517077
0.000455556
0.000503967
0.000517151
0.000493745
0.00051504
0.00045367
0.000501936
0.000516873
0.000493471
0.000514758
0.000453414
0.000501654
0.000515907
0.000492517
0.000513776
0.000452517
0.000500677
0.000515744
0.000492357
0.00051361
0.000452367
0.000500511
0.000515293
0.000491912
0.00051315
0.000451948
0.000500053
0.000515223
0.000491842
0.000513078
0.000451883
0.00049998
0.000515091
0.000491712
0.000512943
0.000451761
0.000499846
0.000515091
0.000491712
0.000512943
0.000451761
0.000499846
0.000515223
0.000491842
0.000513078
0.000451883
0.00049998
0.000515293
0.000491912
0.00051315
0.000451948
0.000500053
0.000515744
0.000492357
0.00051361
0.000452367
0.000500511
0.000515907
0.000492517
0.000513776
0.000452517
0.000500677
0.000516873
0.000493471
0.000514758
0.000453414
0.000501654
0.000517151
0.000493745
0.00051504
0.00045367
0.000501936
0.000519162
0.000495745
0.000517077
0.000455556
0.000503967
0.000519517
0.000496095
0.000517436
0.000455883
0.000504325
0.000524468
0.00050111
0.000522426
0.000460768
0.000509464
0.000524237
0.000501099
0.000522564
0.000460785
0.000507993
0.00051937
0.000496173
0.000517663
0.00045599
0.00050294
0.000519017
0.000495825
0.000517307
0.000455666
0.000502585
0.00051701
0.000493829
0.000515274
0.000453784
0.000500561
0.000516733
0.000493557
0.000514993
0.000453529
0.000500281
0.000515767
0.000492603
0.000514011
0.000452632
0.000499304
0.000515605
0.000492443
0.000513846
0.000452483
0.000499139
0.000515154
0.000491998
0.000513386
0.000452065
0.000498681
0.000515083
0.000491929
0.000513314
0.000451999
0.000498609
0.000514951
0.000491799
0.000513179
0.000451877
0.000498475
0.000514951
0.000491799
0.000513179
0.000451877
0.000498475
0.000515083
0.000491929
0.000513314
0.000451999
0.000498609
0.000515154
0.000491998
0.000513386
0.000452065
0.000498681
0.000515605
0.000492443
0.000513846
0.000452483
0.000499139
0.000515767
0.000492603
0.000514011
0.000452632
0.000499304
0.000516733
0.000493557
0.000514993
0.000453529
0.000500281
0.00051701
0.000493829
0.000515274
0.000453784
0.000500561
0.000519017
0.000495825
0.000517307
0.000455666
0.000502585
0.00051937
0.000496173
0.000517663
0.00045599
0.00050294
0.000524237
0.000501099
0.000522564
0.000460785
0.000507993
0.000524023
0.000501099
0.000522714
0.000460741
0.000506474
0.000519238
0.000496259
0.000517899
0.000456034
0.000501507
0.000518888
0.000495914
0.000517545
0.000455713
0.000501154
0.000516885
0.000493923
0.000515518
0.000453836
0.000499138
0.000516609
0.000493651
0.000515237
0.000453582
0.000498859
0.000515643
0.000492697
0.000514256
0.000452686
0.000497884
0.000515482
0.000492538
0.000514091
0.000452537
0.000497719
0.00051503
0.000492093
0.000513631
0.000452119
0.000497262
0.00051496
0.000492024
0.000513559
0.000452054
0.00049719
0.000514828
0.000491894
0.000513424
0.000451931
0.000497056
0.000514828
0.000491894
0.000513424
0.000451931
0.000497056
0.00051496
0.000492024
0.000513559
0.000452054
0.00049719
0.00051503
0.000492093
0.000513631
0.000452119
0.000497262
0.000515482
0.000492538
0.000514091
0.000452537
0.000497719
0.000515643
0.000492697
0.000514256
0.000452686
0.000497884
0.000516609
0.000493651
0.000515237
0.000453582
0.000498859
0.000516885
0.000493923
0.000515518
0.000453836
0.000499138
0.000518888
0.000495914
0.000517545
0.000455713
0.000501154
0.000519238
0.000496259
0.000517899
0.000456034
0.000501507
0.000524023
0.000501099
0.000522714
0.000460741
0.000506474
-1.62756e-05
1.58318e-05
2.83222e-06
6.98936e-07
2.51334e-07
1.80758e-07
1.653e-07
1.62494e-07
1.61806e-07
1.61662e-07
1.61615e-07
1.61593e-07
1.61495e-07
1.61386e-07
1.60519e-07
1.59851e-07
1.53415e-07
1.50644e-07
1.11916e-07
1.07812e-07
-1.63454e-05
1.57924e-05
2.84673e-06
7.03932e-07
2.52558e-07
1.81059e-07
1.65353e-07
1.62493e-07
1.61789e-07
1.61642e-07
1.61593e-07
1.61571e-07
1.61471e-07
1.61359e-07
1.60478e-07
1.59803e-07
1.53295e-07
1.50518e-07
1.11616e-07
1.076e-07
-1.63386e-05
1.57816e-05
2.84329e-06
7.03458e-07
2.52463e-07
1.81046e-07
1.6535e-07
1.62493e-07
1.61789e-07
1.61641e-07
1.61593e-07
1.61571e-07
1.61471e-07
1.61359e-07
1.60477e-07
1.59802e-07
1.53293e-07
1.50516e-07
1.11613e-07
1.07598e-07
-1.63086e-05
1.57283e-05
2.82666e-06
7.01226e-07
2.52026e-07
1.80988e-07
1.65337e-07
1.6249e-07
1.61787e-07
1.6164e-07
1.61592e-07
1.61569e-07
1.61469e-07
1.61357e-07
1.60475e-07
1.59799e-07
1.53286e-07
1.50509e-07
1.11601e-07
1.07592e-07
-1.63027e-05
1.57196e-05
2.82354e-06
7.00737e-07
2.51915e-07
1.8097e-07
1.65332e-07
1.62489e-07
1.61787e-07
1.6164e-07
1.61591e-07
1.61569e-07
1.61469e-07
1.61357e-07
1.60475e-07
1.59799e-07
1.53286e-07
1.50509e-07
1.11601e-07
1.07591e-07
-1.62854e-05
1.56933e-05
2.81442e-06
6.9937e-07
2.51614e-07
1.80921e-07
1.65321e-07
1.62487e-07
1.61786e-07
1.6164e-07
1.61591e-07
1.61569e-07
1.61469e-07
1.61357e-07
1.60474e-07
1.59798e-07
1.53286e-07
1.50509e-07
1.11601e-07
1.07591e-07
-1.62819e-05
1.56882e-05
2.8126e-06
6.9908e-07
2.51546e-07
1.80909e-07
1.65318e-07
1.62486e-07
1.61786e-07
1.6164e-07
1.61591e-07
1.61569e-07
1.61469e-07
1.61357e-07
1.60474e-07
1.59798e-07
1.53286e-07
1.50509e-07
1.11601e-07
1.07591e-07
-1.62737e-05
1.5676e-05
2.80834e-06
6.98435e-07
2.51401e-07
1.80885e-07
1.65312e-07
1.62485e-07
1.61786e-07
1.6164e-07
1.61591e-07
1.61569e-07
1.61469e-07
1.61357e-07
1.60474e-07
1.59798e-07
1.53286e-07
1.50509e-07
1.11601e-07
1.07591e-07
-1.62721e-05
1.56738e-05
2.80754e-06
6.98308e-07
2.51372e-07
1.8088e-07
1.65311e-07
1.62485e-07
1.61786e-07
1.6164e-07
1.61591e-07
1.61569e-07
1.61469e-07
1.61357e-07
1.60474e-07
1.59798e-07
1.53286e-07
1.50509e-07
1.11601e-07
1.07591e-07
-1.62697e-05
1.56702e-05
2.8063e-06
6.9812e-07
2.5133e-07
1.80873e-07
1.65309e-07
1.62484e-07
1.61786e-07
1.6164e-07
1.61591e-07
1.61569e-07
1.61469e-07
1.61357e-07
1.60474e-07
1.59798e-07
1.53286e-07
1.50509e-07
1.11601e-07
1.07591e-07
-1.62697e-05
1.56702e-05
2.8063e-06
6.9812e-07
2.5133e-07
1.80873e-07
1.65309e-07
1.62484e-07
1.61786e-07
1.6164e-07
1.61591e-07
1.61569e-07
1.61469e-07
1.61357e-07
1.60474e-07
1.59798e-07
1.53286e-07
1.50509e-07
1.11601e-07
1.07591e-07
-1.62721e-05
1.56738e-05
2.80754e-06
6.98308e-07
2.51372e-07
1.8088e-07
1.65311e-07
1.62485e-07
1.61786e-07
1.6164e-07
1.61591e-07
1.61569e-07
1.61469e-07
1.61357e-07
1.60474e-07
1.59798e-07
1.53286e-07
1.50509e-07
1.11601e-07
1.07591e-07
-1.62737e-05
1.5676e-05
2.80834e-06
6.98435e-07
2.51401e-07
1.80885e-07
1.65312e-07
1.62485e-07
1.61786e-07
1.6164e-07
1.61591e-07
1.61569e-07
1.61469e-07
1.61357e-07
1.60474e-07
1.59798e-07
1.53286e-07
1.50509e-07
1.11601e-07
1.07591e-07
-1.62819e-05
1.56882e-05
2.8126e-06
6.9908e-07
2.51546e-07
1.80909e-07
1.65318e-07
1.62486e-07
1.61786e-07
1.6164e-07
1.61591e-07
1.61569e-07
1.61469e-07
1.61357e-07
1.60474e-07
1.59798e-07
1.53286e-07
1.50509e-07
1.11601e-07
1.07591e-07
-1.62854e-05
1.56933e-05
2.81442e-06
6.9937e-07
2.51614e-07
1.80921e-07
1.65321e-07
1.62487e-07
1.61786e-07
1.6164e-07
1.61591e-07
1.61569e-07
1.61469e-07
1.61357e-07
1.60474e-07
1.59798e-07
1.53286e-07
1.50509e-07
1.11601e-07
1.07591e-07
-1.63027e-05
1.57196e-05
2.82354e-06
7.00737e-07
2.51915e-07
1.8097e-07
1.65332e-07
1.62489e-07
1.61787e-07
1.6164e-07
1.61591e-07
1.61569e-07
1.61469e-07
1.61357e-07
1.60475e-07
1.59799e-07
1.53286e-07
1.50509e-07
1.11601e-07
1.07591e-07
-1.63086e-05
1.57283e-05
2.82666e-06
7.01226e-07
2.52026e-07
1.80988e-07
1.65337e-07
1.6249e-07
1.61787e-07
1.6164e-07
1.61592e-07
1.61569e-07
1.61469e-07
1.61357e-07
1.60475e-07
1.59799e-07
1.53286e-07
1.50509e-07
1.11601e-07
1.07592e-07
-1.63386e-05
1.57816e-05
2.84329e-06
7.03458e-07
2.52463e-07
1.81046e-07
1.6535e-07
1.62493e-07
1.61789e-07
1.61641e-07
1.61593e-07
1.61571e-07
1.61471e-07
1.61359e-07
1.60477e-07
1.59802e-07
1.53293e-07
1.50516e-07
1.11613e-07
1.07598e-07
-1.63454e-05
1.57924e-05
2.84673e-06
7.03932e-07
2.52558e-07
1.81059e-07
1.65353e-07
1.62493e-07
1.61789e-07
1.61642e-07
1.61593e-07
1.61571e-07
1.61471e-07
1.61359e-07
1.60478e-07
1.59803e-07
1.53295e-07
1.50518e-07
1.11616e-07
1.076e-07
-1.62756e-05
1.58318e-05
2.83222e-06
6.98936e-07
2.51334e-07
1.80758e-07
1.653e-07
1.62494e-07
1.61806e-07
1.61662e-07
1.61615e-07
1.61593e-07
1.61495e-07
1.61386e-07
1.60519e-07
1.59851e-07
1.53415e-07
1.50644e-07
1.11916e-07
1.07812e-07
-1.58922e-05
1.60027e-05
2.85775e-06
7.04374e-07
2.52285e-07
1.80979e-07
1.65326e-07
1.62589e-07
1.61897e-07
1.6175e-07
1.61703e-07
1.61681e-07
1.61581e-07
1.6147e-07
1.60564e-07
1.59833e-07
1.53333e-07
1.50537e-07
1.11321e-07
1.07188e-07
-1.59569e-05
1.59633e-05
2.87243e-06
7.09426e-07
2.53524e-07
1.81282e-07
1.65379e-07
1.62587e-07
1.6188e-07
1.6173e-07
1.61681e-07
1.61659e-07
1.61557e-07
1.61444e-07
1.60522e-07
1.59784e-07
1.53212e-07
1.50409e-07
1.11017e-07
1.06972e-07
-1.59499e-05
1.59523e-05
2.86896e-06
7.08947e-07
2.53428e-07
1.81269e-07
1.65376e-07
1.62586e-07
1.6188e-07
1.6173e-07
1.61681e-07
1.61658e-07
1.61557e-07
1.61444e-07
1.60521e-07
1.59783e-07
1.5321e-07
1.50407e-07
1.11014e-07
1.0697e-07
-1.5919e-05
1.58985e-05