/*--------------------------------*- C++ -*----------------------------------*\
  =========                 |
  \\      /  F ield         | OpenFOAM: The Open Source CFD Toolbox
   \\    /   O peration     | Website:  https://openfoam.org
    \\  /    A nd           | Version:  8
     \\/     M anipulation  |
\*---------------------------------------------------------------------------*/
FoamFile
{
    version     2.0;
    format      ascii;
    class       volScalarField;
    location    "5";
    object      S1;
}
// * * * * * * * * * * * * * * * * * * * * * * * * * * * * * * * * * * * * * //

dimensions      [0 1 -1 0 0 0 0];

internalField   nonuniform List<scalar> 
180000
(
2.87703e-24
5.37293e-20
8.59658e-16
1.146e-11
1.28298e-07
3.28731e-24
6.0234e-20
9.49724e-16
1.25022e-11
1.38339e-07
3.29235e-24
6.03079e-20
9.5062e-16
1.25106e-11
1.38394e-07
3.30362e-24
6.04761e-20
9.52701e-16
1.25315e-11
1.38543e-07
3.30071e-24
6.04256e-20
9.51918e-16
1.25212e-11
1.38426e-07
3.29208e-24
6.02797e-20
9.49713e-16
1.24932e-11
1.38118e-07
3.29039e-24
6.02505e-20
9.4926e-16
1.24872e-11
1.38051e-07
3.28634e-24
6.01819e-20
9.4822e-16
1.2474e-11
1.37904e-07
3.28568e-24
6.01704e-20
9.48041e-16
1.24716e-11
1.37877e-07
3.2846e-24
6.01519e-20
9.47758e-16
1.2468e-11
1.37836e-07
3.2846e-24
6.01519e-20
9.47758e-16
1.2468e-11
1.37836e-07
3.28568e-24
6.01704e-20
9.48041e-16
1.24716e-11
1.37877e-07
3.28634e-24
6.01819e-20
9.4822e-16
1.2474e-11
1.37904e-07
3.29039e-24
6.02505e-20
9.4926e-16
1.24872e-11
1.38051e-07
3.29208e-24
6.02797e-20
9.49713e-16
1.24932e-11
1.38118e-07
3.30071e-24
6.04256e-20
9.51918e-16
1.25212e-11
1.38426e-07
3.30362e-24
6.04761e-20
9.52701e-16
1.25315e-11
1.38543e-07
3.29235e-24
6.03079e-20
9.50621e-16
1.25106e-11
1.38394e-07
3.28731e-24
6.0234e-20
9.49724e-16
1.25022e-11
1.38339e-07
2.87703e-24
5.37293e-20
8.59658e-16
1.146e-11
1.28298e-07
2.87701e-24
5.37279e-20
8.596e-16
1.14629e-11
1.34264e-07
3.28729e-24
6.02323e-20
9.4966e-16
1.25051e-11
1.44515e-07
3.29233e-24
6.03062e-20
9.50557e-16
1.25135e-11
1.44567e-07
3.3036e-24
6.04743e-20
9.52638e-16
1.25343e-11
1.44704e-07
3.30069e-24
6.04239e-20
9.51855e-16
1.2524e-11
1.44581e-07
3.29206e-24
6.0278e-20
9.4965e-16
1.2496e-11
1.44257e-07
3.29036e-24
6.02487e-20
9.49197e-16
1.24901e-11
1.44186e-07
3.28632e-24
6.01801e-20
9.48157e-16
1.24768e-11
1.44031e-07
3.28566e-24
6.01686e-20
9.47979e-16
1.24745e-11
1.44003e-07
3.28458e-24
6.01501e-20
9.47695e-16
1.24708e-11
1.4396e-07
3.28458e-24
6.01501e-20
9.47695e-16
1.24708e-11
1.4396e-07
3.28566e-24
6.01686e-20
9.47979e-16
1.24745e-11
1.44003e-07
3.28632e-24
6.01801e-20
9.48157e-16
1.24768e-11
1.44031e-07
3.29036e-24
6.02487e-20
9.49197e-16
1.24901e-11
1.44186e-07
3.29206e-24
6.0278e-20
9.4965e-16
1.2496e-11
1.44257e-07
3.30069e-24
6.04239e-20
9.51855e-16
1.2524e-11
1.44581e-07
3.3036e-24
6.04743e-20
9.52638e-16
1.25343e-11
1.44704e-07
3.29233e-24
6.03062e-20
9.50557e-16
1.25135e-11
1.44567e-07
3.28729e-24
6.02323e-20
9.4966e-16
1.25051e-11
1.44515e-07
2.87701e-24
5.37279e-20
8.596e-16
1.14629e-11
1.34264e-07
2.87699e-24
5.37249e-20
8.59508e-16
1.14791e-11
1.58158e-07
3.28727e-24
6.02288e-20
9.49558e-16
1.25215e-11
1.68953e-07
3.29231e-24
6.03027e-20
9.50455e-16
1.25299e-11
1.68995e-07
3.30358e-24
6.04709e-20
9.52537e-16
1.25506e-11
1.69104e-07
3.30067e-24
6.04205e-20
9.51754e-16
1.25403e-11
1.68965e-07
3.29204e-24
6.02745e-20
9.49549e-16
1.25122e-11
1.68598e-07
3.29034e-24
6.02453e-20
9.49097e-16
1.25063e-11
1.68518e-07
3.2863e-24
6.01767e-20
9.48057e-16
1.2493e-11
1.68342e-07
3.28564e-24
6.01652e-20
9.47879e-16
1.24906e-11
1.68309e-07
3.28456e-24
6.01467e-20
9.47595e-16
1.2487e-11
1.6826e-07
3.28456e-24
6.01467e-20
9.47595e-16
1.2487e-11
1.6826e-07
3.28564e-24
6.01652e-20
9.47879e-16
1.24906e-11
1.68309e-07
3.2863e-24
6.01767e-20
9.48057e-16
1.2493e-11
1.68342e-07
3.29034e-24
6.02453e-20
9.49097e-16
1.25063e-11
1.68518e-07
3.29204e-24
6.02745e-20
9.49549e-16
1.25122e-11
1.68598e-07
3.30067e-24
6.04205e-20
9.51754e-16
1.25403e-11
1.68965e-07
3.30358e-24
6.04709e-20
9.52537e-16
1.25506e-11
1.69104e-07
3.29231e-24
6.03027e-20
9.50455e-16
1.25299e-11
1.68995e-07
3.28727e-24
6.02289e-20
9.49558e-16
1.25215e-11
1.68953e-07
2.87699e-24
5.37249e-20
8.59508e-16
1.14791e-11
1.58158e-07
2.87697e-24
5.37195e-20
8.59404e-16
1.15234e-11
2.0818e-07
3.28724e-24
6.02228e-20
9.4944e-16
1.25661e-11
2.19652e-07
3.29228e-24
6.02967e-20
9.50338e-16
1.25744e-11
2.1968e-07
3.30356e-24
6.04649e-20
9.5242e-16
1.2595e-11
2.19757e-07
3.30064e-24
6.04145e-20
9.51637e-16
1.25847e-11
2.19595e-07
3.29202e-24
6.02685e-20
9.49433e-16
1.25565e-11
2.19172e-07
3.29032e-24
6.02393e-20
9.48981e-16
1.25506e-11
2.19078e-07
3.28628e-24
6.01707e-20
9.47942e-16
1.25372e-11
2.18874e-07
3.28562e-24
6.01592e-20
9.47763e-16
1.25348e-11
2.18836e-07
3.28453e-24
6.01407e-20
9.4748e-16
1.25312e-11
2.18778e-07
3.28453e-24
6.01407e-20
9.4748e-16
1.25312e-11
2.18778e-07
3.28562e-24
6.01592e-20
9.47763e-16
1.25348e-11
2.18836e-07
3.28628e-24
6.01707e-20
9.47942e-16
1.25372e-11
2.18874e-07
3.29032e-24
6.02393e-20
9.48981e-16
1.25506e-11
2.19078e-07
3.29202e-24
6.02685e-20
9.49433e-16
1.25565e-11
2.19172e-07
3.30064e-24
6.04145e-20
9.51637e-16
1.25847e-11
2.19595e-07
3.30356e-24
6.04649e-20
9.5242e-16
1.2595e-11
2.19757e-07
3.29228e-24
6.02967e-20
9.50338e-16
1.25744e-11
2.1968e-07
3.28724e-24
6.02228e-20
9.4944e-16
1.25661e-11
2.19652e-07
2.87697e-24
5.37195e-20
8.59404e-16
1.15234e-11
2.0818e-07
2.87694e-24
5.3712e-20
8.59313e-16
1.16125e-11
2.86684e-07
3.2872e-24
6.02142e-20
9.4933e-16
1.26553e-11
2.98752e-07
3.29225e-24
6.02883e-20
9.5023e-16
1.26636e-11
2.9876e-07
3.30353e-24
6.04564e-20
9.52312e-16
1.2684e-11
2.98785e-07
3.30061e-24
6.0406e-20
9.51529e-16
1.26735e-11
2.98596e-07
3.29199e-24
6.02601e-20
9.49326e-16
1.26452e-11
2.98104e-07
3.29029e-24
6.02308e-20
9.48874e-16
1.26392e-11
2.97994e-07
3.28625e-24
6.01623e-20
9.47835e-16
1.26258e-11
2.97756e-07
3.28559e-24
6.01508e-20
9.47656e-16
1.26234e-11
2.97711e-07
3.2845e-24
6.01323e-20
9.47373e-16
1.26197e-11
2.97643e-07
3.2845e-24
6.01323e-20
9.47373e-16
1.26197e-11
2.97643e-07
3.28559e-24
6.01508e-20
9.47656e-16
1.26234e-11
2.97711e-07
3.28625e-24
6.01623e-20
9.47835e-16
1.26258e-11
2.97756e-07
3.29029e-24
6.02308e-20
9.48874e-16
1.26392e-11
2.97994e-07
3.29199e-24
6.02601e-20
9.49326e-16
1.26452e-11
2.98104e-07
3.30061e-24
6.0406e-20
9.51529e-16
1.26735e-11
2.98596e-07
3.30353e-24
6.04564e-20
9.52312e-16
1.2684e-11
2.98785e-07
3.29225e-24
6.02883e-20
9.5023e-16
1.26636e-11
2.9876e-07
3.2872e-24
6.02142e-20
9.4933e-16
1.26553e-11
2.98752e-07
2.87694e-24
5.3712e-20
8.59313e-16
1.16125e-11
2.86684e-07
2.87691e-24
5.37024e-20
8.59271e-16
1.17637e-11
3.9494e-07
3.28716e-24
6.02034e-20
9.49265e-16
1.28064e-11
4.07411e-07
3.29222e-24
6.02775e-20
9.50166e-16
1.28146e-11
4.07387e-07
3.30349e-24
6.04457e-20
9.52248e-16
1.28345e-11
4.07311e-07
3.30058e-24
6.03953e-20
9.51466e-16
1.28239e-11
4.07087e-07
3.29195e-24
6.02494e-20
9.49263e-16
1.27953e-11
4.06506e-07
3.29025e-24
6.02202e-20
9.48811e-16
1.27892e-11
4.06375e-07
3.28621e-24
6.01516e-20
9.47772e-16
1.27757e-11
4.06092e-07
3.28555e-24
6.01402e-20
9.47594e-16
1.27733e-11
4.06038e-07
3.28447e-24
6.01216e-20
9.47311e-16
1.27695e-11
4.05957e-07
3.28447e-24
6.01216e-20
9.47311e-16
1.27695e-11
4.05957e-07
3.28555e-24
6.01402e-20
9.47594e-16
1.27733e-11
4.06038e-07
3.28621e-24
6.01516e-20
9.47772e-16
1.27757e-11
4.06092e-07
3.29025e-24
6.02202e-20
9.48811e-16
1.27892e-11
4.06375e-07
3.29195e-24
6.02494e-20
9.49263e-16
1.27953e-11
4.06506e-07
3.30058e-24
6.03953e-20
9.51466e-16
1.28239e-11
4.07087e-07
3.30349e-24
6.04457e-20
9.52248e-16
1.28345e-11
4.07311e-07
3.29222e-24
6.02775e-20
9.50166e-16
1.28146e-11
4.07387e-07
3.28716e-24
6.02034e-20
9.49265e-16
1.28064e-11
4.07411e-07
2.87691e-24
5.37024e-20
8.59271e-16
1.17637e-11
3.9494e-07
2.87687e-24
5.3691e-20
8.59332e-16
1.19954e-11
5.34631e-07
3.28711e-24
6.01906e-20
9.49296e-16
1.30373e-11
5.47206e-07
3.29217e-24
6.02648e-20
9.50198e-16
1.30454e-11
5.47136e-07
3.30345e-24
6.04329e-20
9.5228e-16
1.30645e-11
5.46881e-07
3.30054e-24
6.03826e-20
9.51498e-16
1.30538e-11
5.46614e-07
3.29191e-24
6.02368e-20
9.49296e-16
1.30247e-11
5.45908e-07
3.29021e-24
6.02075e-20
9.48844e-16
1.30186e-11
5.4575e-07
3.28617e-24
6.0139e-20
9.47805e-16
1.30048e-11
5.45408e-07
3.28551e-24
6.01275e-20
9.47627e-16
1.30024e-11
5.45342e-07
3.28443e-24
6.0109e-20
9.47344e-16
1.29986e-11
5.45244e-07
3.28443e-24
6.0109e-20
9.47344e-16
1.29986e-11
5.45244e-07
3.28551e-24
6.01275e-20
9.47627e-16
1.30024e-11
5.45342e-07
3.28617e-24
6.0139e-20
9.47805e-16
1.30048e-11
5.45408e-07
3.29021e-24
6.02075e-20
9.48844e-16
1.30186e-11
5.4575e-07
3.29191e-24
6.02368e-20
9.49295e-16
1.30247e-11
5.45908e-07
3.30054e-24
6.03826e-20
9.51498e-16
1.30538e-11
5.46614e-07
3.30345e-24
6.04329e-20
9.5228e-16
1.30645e-11
5.46881e-07
3.29217e-24
6.02648e-20
9.50198e-16
1.30454e-11
5.47136e-07
3.28711e-24
6.01906e-20
9.49296e-16
1.30373e-11
5.47206e-07
2.87687e-24
5.3691e-20
8.59332e-16
1.19954e-11
5.34631e-07
2.87682e-24
5.3678e-20
8.59558e-16
1.2327e-11
7.07344e-07
3.28705e-24
6.01759e-20
9.49486e-16
1.3367e-11
7.19585e-07
3.29212e-24
6.02503e-20
9.5039e-16
1.33749e-11
7.1945e-07
3.3034e-24
6.04184e-20
9.5247e-16
1.33929e-11
7.18911e-07
3.30048e-24
6.0368e-20
9.51688e-16
1.3382e-11
7.18588e-07
3.29186e-24
6.02223e-20
9.49486e-16
1.33523e-11
7.17714e-07
3.29016e-24
6.01931e-20
9.49034e-16
1.3346e-11
7.17524e-07
3.28612e-24
6.01245e-20
9.47995e-16
1.33319e-11
7.17102e-07
3.28546e-24
6.01131e-20
9.47817e-16
1.33294e-11
7.17022e-07
3.28437e-24
6.00946e-20
9.47534e-16
1.33255e-11
7.169e-07
3.28437e-24
6.00946e-20
9.47534e-16
1.33255e-11
7.169e-07
3.28546e-24
6.01131e-20
9.47817e-16
1.33294e-11
7.17022e-07
3.28612e-24
6.01245e-20
9.47995e-16
1.33319e-11
7.17102e-07
3.29016e-24
6.01931e-20
9.49034e-16
1.3346e-11
7.17524e-07
3.29186e-24
6.02223e-20
9.49485e-16
1.33523e-11
7.17714e-07
3.30048e-24
6.0368e-20
9.51688e-16
1.3382e-11
7.18588e-07
3.3034e-24
6.04184e-20
9.5247e-16
1.33929e-11
7.18911e-07
3.29212e-24
6.02503e-20
9.5039e-16
1.33749e-11
7.1945e-07
3.28705e-24
6.01759e-20
9.49486e-16
1.3367e-11
7.19585e-07
2.87682e-24
5.3678e-20
8.59558e-16
1.2327e-11
7.07344e-07
2.87677e-24
5.36636e-20
8.60028e-16
1.27783e-11
9.13953e-07
3.28698e-24
6.01595e-20
9.4991e-16
1.38148e-11
9.25245e-07
3.29206e-24
6.0234e-20
9.50816e-16
1.38224e-11
9.25025e-07
3.30333e-24
6.04022e-20
9.52892e-16
1.38388e-11
9.24071e-07
3.30042e-24
6.03518e-20
9.5211e-16
1.38276e-11
9.23678e-07
3.2918e-24
6.02062e-20
9.49907e-16
1.3797e-11
9.22585e-07
3.2901e-24
6.0177e-20
9.49455e-16
1.37906e-11
9.22353e-07
3.28606e-24
6.01085e-20
9.48416e-16
1.37761e-11
9.21828e-07
3.2854e-24
6.0097e-20
9.48238e-16
1.37735e-11
9.21729e-07
3.28431e-24
6.00785e-20
9.47955e-16
1.37695e-11
9.21577e-07
3.28431e-24
6.00785e-20
9.47955e-16
1.37695e-11
9.21577e-07
3.2854e-24
6.0097e-20
9.48238e-16
1.37735e-11
9.21729e-07
3.28606e-24
6.01085e-20
9.48416e-16
1.37761e-11
9.21828e-07
3.2901e-24
6.01769e-20
9.49455e-16
1.37906e-11
9.22353e-07
3.29179e-24
6.02062e-20
9.49907e-16
1.3797e-11
9.22585e-07
3.30042e-24
6.03518e-20
9.5211e-16
1.38276e-11
9.23678e-07
3.30333e-24
6.04022e-20
9.52892e-16
1.38388e-11
9.24071e-07
3.29206e-24
6.0234e-20
9.50816e-16
1.38224e-11
9.25025e-07
3.28698e-24
6.01595e-20
9.4991e-16
1.38148e-11
9.25245e-07
2.87677e-24
5.36636e-20
8.60028e-16
1.27783e-11
9.13953e-07
2.8767e-24
5.3648e-20
8.6083e-16
1.33689e-11
1.15394e-06
3.28689e-24
6.01418e-20
9.50656e-16
1.43997e-11
1.16346e-06
3.29199e-24
6.02165e-20
9.51562e-16
1.44068e-11
1.16313e-06
3.30326e-24
6.03846e-20
9.53633e-16
1.4421e-11
1.1616e-06
3.30035e-24
6.03343e-20
9.52851e-16
1.44095e-11
1.16112e-06
3.29172e-24
6.01887e-20
9.50646e-16
1.43777e-11
1.15975e-06
3.29003e-24
6.01595e-20
9.50194e-16
1.4371e-11
1.15947e-06
3.28599e-24
6.0091e-20
9.49155e-16
1.43559e-11
1.15881e-06
3.28533e-24
6.00796e-20
9.48976e-16
1.43533e-11
1.15869e-06
3.28424e-24
6.00611e-20
9.48693e-16
1.43491e-11
1.1585e-06
3.28424e-24
6.00611e-20
9.48693e-16
1.43491e-11
1.1585e-06
3.28533e-24
6.00796e-20
9.48976e-16
1.43533e-11
1.15869e-06
3.28599e-24
6.0091e-20
9.49155e-16
1.43559e-11
1.15881e-06
3.29003e-24
6.01595e-20
9.50194e-16
1.4371e-11
1.15947e-06
3.29172e-24
6.01887e-20
9.50646e-16
1.43777e-11
1.15975e-06
3.30035e-24
6.03343e-20
9.52851e-16
1.44095e-11
1.16112e-06
3.30326e-24
6.03846e-20
9.53633e-16
1.4421e-11
1.1616e-06
3.29199e-24
6.02165e-20
9.51562e-16
1.44068e-11
1.16313e-06
3.28689e-24
6.01418e-20
9.50655e-16
1.43997e-11
1.16346e-06
2.8767e-24
5.3648e-20
8.6083e-16
1.33689e-11
1.15394e-06
2.87663e-24
5.36316e-20
8.61964e-16
1.39573e-11
1.1509e-06
3.28679e-24
6.01229e-20
9.51722e-16
1.49823e-11
1.16044e-06
3.2919e-24
6.01978e-20
9.52629e-16
1.4989e-11
1.16011e-06
3.30318e-24
6.03659e-20
9.54693e-16
1.5001e-11
1.15861e-06
3.30027e-24
6.03156e-20
9.53909e-16
1.4989e-11
1.15814e-06
3.29164e-24
6.01701e-20
9.51703e-16
1.49561e-11
1.15678e-06
3.28994e-24
6.01409e-20
9.5125e-16
1.49492e-11
1.1565e-06
3.2859e-24
6.00725e-20
9.50209e-16
1.49336e-11
1.15585e-06
3.28524e-24
6.00611e-20
9.5003e-16
1.49308e-11
1.15573e-06
3.28416e-24
6.00426e-20
9.49747e-16
1.49265e-11
1.15554e-06
3.28416e-24
6.00426e-20
9.49747e-16
1.49265e-11
1.15554e-06
3.28524e-24
6.00611e-20
9.5003e-16
1.49308e-11
1.15573e-06
3.2859e-24
6.00725e-20
9.50209e-16
1.49336e-11
1.15585e-06
3.28994e-24
6.01409e-20
9.5125e-16
1.49492e-11
1.1565e-06
3.29164e-24
6.01701e-20
9.51703e-16
1.49561e-11
1.15678e-06
3.30027e-24
6.03156e-20
9.53909e-16
1.4989e-11
1.15814e-06
3.30318e-24
6.03659e-20
9.54693e-16
1.5001e-11
1.15861e-06
3.2919e-24
6.01978e-20
9.52629e-16
1.4989e-11
1.16011e-06
3.28679e-24
6.01229e-20
9.51721e-16
1.49823e-11
1.16044e-06
2.87663e-24
5.36316e-20
8.61964e-16
1.39573e-11
1.1509e-06
2.87654e-24
5.36145e-20
8.6343e-16
1.45434e-11
1.14796e-06
3.28668e-24
6.01032e-20
9.53108e-16
1.55626e-11
1.15751e-06
3.29181e-24
6.01783e-20
9.54017e-16
1.55689e-11
1.15719e-06
3.30308e-24
6.03464e-20
9.5607e-16
1.55786e-11
1.15571e-06
3.30017e-24
6.02961e-20
9.55286e-16
1.55664e-11
1.15524e-06
3.29155e-24
6.01507e-20
9.53076e-16
1.55322e-11
1.1539e-06
3.28985e-24
6.01215e-20
9.52622e-16
1.55251e-11
1.15362e-06
3.28581e-24
6.00532e-20
9.5158e-16
1.5509e-11
1.15298e-06
3.28515e-24
6.00418e-20
9.51401e-16
1.55061e-11
1.15286e-06
3.28407e-24
6.00233e-20
9.51117e-16
1.55016e-11
1.15267e-06
3.28407e-24
6.00233e-20
9.51117e-16
1.55016e-11
1.15267e-06
3.28515e-24
6.00417e-20
9.51401e-16
1.55061e-11
1.15286e-06
3.28581e-24
6.00532e-20
9.5158e-16
1.5509e-11
1.15298e-06
3.28985e-24
6.01215e-20
9.52622e-16
1.55251e-11
1.15362e-06
3.29155e-24
6.01507e-20
9.53076e-16
1.55322e-11
1.1539e-06
3.30017e-24
6.02961e-20
9.55286e-16
1.55664e-11
1.15524e-06
3.30308e-24
6.03464e-20
9.5607e-16
1.55786e-11
1.15571e-06
3.29181e-24
6.01783e-20
9.54017e-16
1.55689e-11
1.15719e-06
3.28668e-24
6.01032e-20
9.53108e-16
1.55626e-11
1.15751e-06
2.87654e-24
5.36145e-20
8.6343e-16
1.45434e-11
1.14796e-06
2.87645e-24
5.35972e-20
8.65226e-16
1.51273e-11
1.1451e-06
3.28656e-24
6.00829e-20
9.54814e-16
1.61405e-11
1.15466e-06
3.2917e-24
6.01582e-20
9.55724e-16
1.61464e-11
1.15434e-06
3.30298e-24
6.03263e-20
9.57765e-16
1.6154e-11
1.15289e-06
3.30007e-24
6.02761e-20
9.56979e-16
1.61413e-11
1.15242e-06
3.29144e-24
6.01307e-20
9.54765e-16
1.6106e-11
1.15109e-06
3.28974e-24
6.01016e-20
9.54311e-16
1.60987e-11
1.15082e-06
3.28571e-24
6.00333e-20
9.53266e-16
1.6082e-11
1.15018e-06
3.28504e-24
6.00218e-20
9.53087e-16
1.60791e-11
1.15006e-06
3.28396e-24
6.00034e-20
9.52802e-16
1.60744e-11
1.14988e-06
3.28396e-24
6.00034e-20
9.52802e-16
1.60744e-11
1.14988e-06
3.28504e-24
6.00218e-20
9.53087e-16
1.60791e-11
1.15006e-06
3.2857e-24
6.00333e-20
9.53266e-16
1.6082e-11
1.15018e-06
3.28974e-24
6.01016e-20
9.54311e-16
1.60987e-11
1.15082e-06
3.29144e-24
6.01307e-20
9.54765e-16
1.6106e-11
1.15109e-06
3.30007e-24
6.02761e-20
9.56979e-16
1.61413e-11
1.15242e-06
3.30298e-24
6.03263e-20
9.57765e-16
1.6154e-11
1.15289e-06
3.2917e-24
6.01582e-20
9.55724e-16
1.61464e-11
1.15434e-06
3.28656e-24
6.00829e-20
9.54814e-16
1.61405e-11
1.15466e-06
2.87645e-24
5.35972e-20
8.65226e-16
1.51273e-11
1.1451e-06
2.87634e-24
5.35797e-20
8.67353e-16
1.57086e-11
1.14231e-06
3.28643e-24
6.00622e-20
9.5684e-16
1.67159e-11
1.15188e-06
3.29159e-24
6.01378e-20
9.5775e-16
1.67214e-11
1.15157e-06
3.30286e-24
6.03059e-20
9.59777e-16
1.67268e-11
1.15014e-06
3.29995e-24
6.02557e-20
9.5899e-16
1.67139e-11
1.14968e-06
3.29132e-24
6.01104e-20
9.5677e-16
1.66774e-11
1.14836e-06
3.28963e-24
6.00813e-20
9.56315e-16
1.66699e-11
1.14809e-06
3.28559e-24
6.0013e-20
9.55268e-16
1.66527e-11
1.14746e-06
3.28493e-24
6.00016e-20
9.55088e-16
1.66496e-11
1.14734e-06
3.28384e-24
5.99832e-20
9.54802e-16
1.66448e-11
1.14716e-06
3.28384e-24
5.99832e-20
9.54802e-16
1.66448e-11
1.14716e-06
3.28493e-24
6.00016e-20
9.55088e-16
1.66496e-11
1.14734e-06
3.28559e-24
6.0013e-20
9.55268e-16
1.66527e-11
1.14746e-06
3.28963e-24
6.00813e-20
9.56315e-16
1.66699e-11
1.14809e-06
3.29132e-24
6.01104e-20
9.5677e-16
1.66774e-11
1.14836e-06
3.29995e-24
6.02557e-20
9.5899e-16
1.67139e-11
1.14968e-06
3.30286e-24
6.03059e-20
9.59777e-16
1.67268e-11
1.15014e-06
3.29158e-24
6.01378e-20
9.5775e-16
1.67214e-11
1.15157e-06
3.28643e-24
6.00622e-20
9.5684e-16
1.67159e-11
1.15188e-06
2.87634e-24
5.35797e-20
8.67353e-16
1.57086e-11
1.14231e-06
2.87623e-24
5.35624e-20
8.69809e-16
1.62875e-11
1.1396e-06
3.28628e-24
6.00415e-20
9.59184e-16
1.72888e-11
1.14918e-06
3.29146e-24
6.01173e-20
9.60094e-16
1.72939e-11
1.14887e-06
3.30273e-24
6.02854e-20
9.62105e-16
1.72972e-11
1.14746e-06
3.29982e-24
6.02352e-20
9.61316e-16
1.72839e-11
1.147e-06
3.2912e-24
6.00901e-20
9.5909e-16
1.72463e-11
1.1457e-06
3.2895e-24
6.0061e-20
9.58634e-16
1.72386e-11
1.14543e-06
3.28546e-24
5.99927e-20
9.57584e-16
1.72208e-11
1.1448e-06
3.2848e-24
5.99813e-20
9.57403e-16
1.72177e-11
1.14469e-06
3.28372e-24
5.99629e-20
9.57117e-16
1.72127e-11
1.14451e-06
3.28372e-24
5.99629e-20
9.57117e-16
1.72127e-11
1.14451e-06
3.2848e-24
5.99813e-20
9.57403e-16
1.72177e-11
1.14469e-06
3.28546e-24
5.99927e-20
9.57584e-16
1.72208e-11
1.1448e-06
3.2895e-24
6.0061e-20
9.58634e-16
1.72386e-11
1.14543e-06
3.2912e-24
6.00901e-20
9.5909e-16
1.72463e-11
1.1457e-06
3.29982e-24
6.02352e-20
9.61316e-16
1.72839e-11
1.147e-06
3.30273e-24
6.02854e-20
9.62105e-16
1.72972e-11
1.14746e-06
3.29145e-24
6.01173e-20
9.60094e-16
1.72939e-11
1.14887e-06
3.28628e-24
6.00415e-20
9.59184e-16
1.72888e-11
1.14918e-06
2.87623e-24
5.35624e-20
8.69809e-16
1.62875e-11
1.1396e-06
2.8761e-24
5.35455e-20
8.72593e-16
1.68638e-11
1.13696e-06
3.28612e-24
6.0021e-20
9.61846e-16
1.7859e-11
1.14653e-06
3.29131e-24
6.00971e-20
9.62756e-16
1.78637e-11
1.14623e-06
3.30259e-24
6.02651e-20
9.64749e-16
1.78649e-11
1.14485e-06
3.29968e-24
6.0215e-20
9.63958e-16
1.78512e-11
1.14439e-06
3.29106e-24
6.00699e-20
9.61724e-16
1.78126e-11
1.1431e-06
3.28936e-24
6.00408e-20
9.61266e-16
1.78047e-11
1.14283e-06
3.28532e-24
5.99726e-20
9.60213e-16
1.77864e-11
1.14221e-06
3.28466e-24
5.99612e-20
9.60032e-16
1.77832e-11
1.1421e-06
3.28358e-24
5.99428e-20
9.59744e-16
1.77781e-11
1.14192e-06
3.28358e-24
5.99428e-20
9.59744e-16
1.77781e-11
1.14192e-06
3.28466e-24
5.99612e-20
9.60032e-16
1.77832e-11
1.1421e-06
3.28532e-24
5.99726e-20
9.60213e-16
1.77864e-11
1.14221e-06
3.28936e-24
6.00408e-20
9.61266e-16
1.78047e-11
1.14283e-06
3.29106e-24
6.00699e-20
9.61724e-16
1.78126e-11
1.1431e-06
3.29968e-24
6.0215e-20
9.63958e-16
1.78512e-11
1.14439e-06
3.30259e-24
6.02651e-20
9.64749e-16
1.78649e-11
1.14485e-06
3.29131e-24
6.00971e-20
9.62756e-16
1.78637e-11
1.14623e-06
3.28612e-24
6.0021e-20
9.61846e-16
1.7859e-11
1.14653e-06
2.8761e-24
5.35455e-20
8.72593e-16
1.68638e-11
1.13696e-06
2.87597e-24
5.35293e-20
8.75705e-16
1.74374e-11
1.13437e-06
3.28594e-24
6.00009e-20
9.64824e-16
1.84265e-11
1.14395e-06
3.29116e-24
6.00773e-20
9.65734e-16
1.84308e-11
1.14366e-06
3.30244e-24
6.02452e-20
9.67706e-16
1.843e-11
1.14229e-06
3.29953e-24
6.01951e-20
9.66913e-16
1.84159e-11
1.14184e-06
3.2909e-24
6.00501e-20
9.64671e-16
1.83762e-11
1.14056e-06
3.28921e-24
6.00211e-20
9.64212e-16
1.83681e-11
1.1403e-06
3.28517e-24
5.99529e-20
9.63154e-16
1.83493e-11
1.13968e-06
3.28451e-24
5.99415e-20
9.62973e-16
1.8346e-11
1.13957e-06
3.28343e-24
5.99231e-20
9.62684e-16
1.83407e-11
1.13939e-06
3.28343e-24
5.99231e-20
9.62684e-16
1.83407e-11
1.13939e-06
3.28451e-24
5.99415e-20
9.62973e-16
1.8346e-11
1.13957e-06
3.28517e-24
5.99529e-20
9.63154e-16
1.83493e-11
1.13968e-06
3.28921e-24
6.00211e-20
9.64212e-16
1.83681e-11
1.1403e-06
3.2909e-24
6.00501e-20
9.64671e-16
1.83762e-11
1.14056e-06
3.29953e-24
6.01951e-20
9.66913e-16
1.84159e-11
1.14184e-06
3.30244e-24
6.02452e-20
9.67706e-16
1.843e-11
1.14229e-06
3.29116e-24
6.00773e-20
9.65734e-16
1.84308e-11
1.14366e-06
3.28594e-24
6.00009e-20
9.64824e-16
1.84265e-11
1.14395e-06
2.87597e-24
5.35293e-20
8.75705e-16
1.74374e-11
1.13437e-06
2.87583e-24
5.35141e-20
8.79143e-16
1.80082e-11
1.13185e-06
3.28576e-24
5.99815e-20
9.68117e-16
1.89911e-11
1.14143e-06
3.291e-24
6.00581e-20
9.69027e-16
1.8995e-11
1.14114e-06
3.30227e-24
6.0226e-20
9.70977e-16
1.89922e-11
1.13979e-06
3.29937e-24
6.01759e-20
9.7018e-16
1.89778e-11
1.13934e-06
3.29074e-24
6.00311e-20
9.67929e-16
1.8937e-11
1.13807e-06
3.28905e-24
6.0002e-20
9.67469e-16
1.89287e-11
1.13781e-06
3.28501e-24
5.99339e-20
9.66407e-16
1.89094e-11
1.1372e-06
3.28435e-24
5.99225e-20
9.66225e-16
1.8906e-11
1.13709e-06
3.28327e-24
5.99041e-20
9.65935e-16
1.89006e-11
1.13692e-06
3.28327e-24
5.99041e-20
9.65935e-16
1.89006e-11
1.13692e-06
3.28435e-24
5.99225e-20
9.66225e-16
1.8906e-11
1.13709e-06
3.28501e-24
5.99339e-20
9.66407e-16
1.89094e-11
1.1372e-06
3.28905e-24
6.0002e-20
9.67469e-16
1.89287e-11
1.13781e-06
3.29074e-24
6.00311e-20
9.67929e-16
1.8937e-11
1.13807e-06
3.29937e-24
6.01759e-20
9.7018e-16
1.89778e-11
1.13934e-06
3.30227e-24
6.0226e-20
9.70977e-16
1.89922e-11
1.13979e-06
3.291e-24
6.00581e-20
9.69027e-16
1.8995e-11
1.14114e-06
3.28576e-24
5.99815e-20
9.68117e-16
1.89911e-11
1.14143e-06
2.87583e-24
5.35141e-20
8.79143e-16
1.80082e-11
1.13185e-06
2.87568e-24
5.35e-20
8.82905e-16
1.85761e-11
1.12936e-06
3.28557e-24
5.9963e-20
9.71723e-16
1.95527e-11
1.13895e-06
3.29083e-24
6.00399e-20
9.72634e-16
1.95563e-11
1.13866e-06
3.3021e-24
6.02077e-20
9.74559e-16
1.95514e-11
1.13733e-06
3.29919e-24
6.01577e-20
9.73759e-16
1.95367e-11
1.13689e-06
3.29057e-24
6.00129e-20
9.71498e-16
1.94949e-11
1.13563e-06
3.28888e-24
5.99838e-20
9.71036e-16
1.94864e-11
1.13537e-06
3.28484e-24
5.99158e-20
9.69969e-16
1.94666e-11
1.13477e-06
3.28418e-24
5.99044e-20
9.69786e-16
1.94631e-11
1.13466e-06
3.2831e-24
5.9886e-20
9.69495e-16
1.94575e-11
1.13448e-06
3.2831e-24
5.9886e-20
9.69495e-16
1.94575e-11
1.13448e-06
3.28418e-24
5.99044e-20
9.69786e-16
1.94631e-11
1.13466e-06
3.28484e-24
5.99158e-20
9.69969e-16
1.94666e-11
1.13477e-06
3.28888e-24
5.99838e-20
9.71036e-16
1.94864e-11
1.13537e-06
3.29057e-24
6.00129e-20
9.71498e-16
1.94949e-11
1.13563e-06
3.29919e-24
6.01577e-20
9.73759e-16
1.95367e-11
1.13689e-06
3.3021e-24
6.02077e-20
9.74559e-16
1.95514e-11
1.13733e-06
3.29083e-24
6.00399e-20
9.72634e-16
1.95563e-11
1.13866e-06
3.28556e-24
5.9963e-20
9.71723e-16
1.95527e-11
1.13895e-06
2.87568e-24
5.35e-20
8.82905e-16
1.85761e-11
1.12936e-06
2.87553e-24
5.34873e-20
8.86991e-16
1.91409e-11
1.12689e-06
3.28536e-24
5.99456e-20
9.75642e-16
2.01113e-11
1.13647e-06
3.29065e-24
6.00229e-20
9.76552e-16
2.01145e-11
1.13618e-06
3.30192e-24
6.01905e-20
9.7845e-16
2.01077e-11
1.13488e-06
3.29902e-24
6.01406e-20
9.77648e-16
2.00926e-11
1.13444e-06
3.29039e-24
5.99959e-20
9.75376e-16
2.00498e-11
1.13319e-06
3.2887e-24
5.99668e-20
9.74911e-16
2.00411e-11
1.13293e-06
3.28466e-24
5.98988e-20
9.7384e-16
2.00208e-11
1.13234e-06
3.284e-24
5.98874e-20
9.73655e-16
2.00172e-11
1.13223e-06
3.28292e-24
5.98691e-20
9.73363e-16
2.00115e-11
1.13205e-06
3.28292e-24
5.98691e-20
9.73363e-16
2.00115e-11
1.13205e-06
3.284e-24
5.98874e-20
9.73655e-16
2.00172e-11
1.13223e-06
3.28466e-24
5.98988e-20
9.7384e-16
2.00208e-11
1.13234e-06
3.2887e-24
5.99668e-20
9.74911e-16
2.00411e-11
1.13293e-06
3.29039e-24
5.99959e-20
9.75376e-16
2.00498e-11
1.13319e-06
3.29902e-24
6.01406e-20
9.77648e-16
2.00926e-11
1.13444e-06
3.30192e-24
6.01905e-20
9.7845e-16
2.01077e-11
1.13488e-06
3.29065e-24
6.00229e-20
9.76552e-16
2.01145e-11
1.13618e-06
3.28536e-24
5.99456e-20
9.75642e-16
2.01113e-11
1.13647e-06
2.87553e-24
5.34873e-20
8.86991e-16
1.91409e-11
1.12689e-06
0.0025983
0.000824815
4.86622e-05
6.30782e-07
1.39721e-09
2.4211e-12
1.89996e-12
1.91306e-12
1.91593e-12
1.91648e-12
1.91667e-12
1.91777e-12
1.92312e-12
1.92942e-12
1.98042e-12
2.02305e-12
2.46515e-12
2.70049e-12
8.60992e-12
1.00449e-11
0.0027681
0.000881693
5.29341e-05
7.03556e-07
1.61352e-09
2.54478e-12
1.89954e-12
1.91294e-12
1.91588e-12
1.91644e-12
1.91661e-12
1.9175e-12
1.92297e-12
1.92939e-12
1.9813e-12
2.02445e-12
2.47255e-12
2.70949e-12
8.68889e-12
1.01415e-11
0.00276843
0.000881458
5.28737e-05
7.02362e-07
1.6097e-09
2.54273e-12
1.89953e-12
1.91294e-12
1.91588e-12
1.91644e-12
1.91661e-12
1.91751e-12
1.92299e-12
1.92941e-12
1.98134e-12
2.0245e-12
2.4727e-12
2.70965e-12
8.68968e-12
1.01423e-11
0.00277028
0.00087988
5.24902e-05
6.94505e-07
1.58437e-09
2.52882e-12
1.89951e-12
1.91294e-12
1.91589e-12
1.91645e-12
1.91662e-12
1.91759e-12
1.92308e-12
1.92951e-12
1.9815e-12
2.02469e-12
2.47319e-12
2.71017e-12
8.69222e-12
1.01445e-11
0.00276791
0.000878903
5.23958e-05
6.92846e-07
1.57918e-09
2.52587e-12
1.89951e-12
1.91294e-12
1.91589e-12
1.91645e-12
1.91662e-12
1.91759e-12
1.92308e-12
1.92951e-12
1.98151e-12
2.0247e-12
2.47321e-12
2.71018e-12
8.69228e-12
1.01446e-11
0.00276207
0.000876043
5.20938e-05
6.87446e-07
1.56245e-09
2.51647e-12
1.89952e-12
1.91294e-12
1.91589e-12
1.91645e-12
1.91662e-12
1.9176e-12
1.92309e-12
1.92952e-12
1.98152e-12
2.02471e-12
2.47323e-12
2.71021e-12
8.69237e-12
1.01447e-11
0.0027607
0.000875488
5.20416e-05
6.86543e-07
1.55964e-09
2.51487e-12
1.89952e-12
1.91294e-12
1.91589e-12
1.91645e-12
1.91662e-12
1.9176e-12
1.92309e-12
1.92952e-12
1.98152e-12
2.02471e-12
2.47323e-12
2.71021e-12
8.69238e-12
1.01447e-11
0.00275788
0.000874147
5.19037e-05
6.84112e-07
1.55215e-09
2.51067e-12
1.89952e-12
1.91294e-12
1.91589e-12
1.91645e-12
1.91662e-12
1.9176e-12
1.92309e-12
1.92952e-12
1.98152e-12
2.02471e-12
2.47324e-12
2.71021e-12
8.69238e-12
1.01447e-11
0.00275732
0.000873918
5.18821e-05
6.83741e-07
1.55099e-09
2.51001e-12
1.89952e-12
1.91294e-12
1.91589e-12
1.91645e-12
1.91662e-12
1.9176e-12
1.92309e-12
1.92952e-12
1.98152e-12
2.02471e-12
2.47324e-12
2.71021e-12
8.69238e-12
1.01447e-11
0.00275652
0.00087354
5.18432e-05
6.83057e-07
1.54889e-09
2.50883e-12
1.89952e-12
1.91294e-12
1.91589e-12
1.91645e-12
1.91662e-12
1.9176e-12
1.92309e-12
1.92952e-12
1.98152e-12
2.02471e-12
2.47323e-12
2.71021e-12
8.69238e-12
1.01447e-11
0.00275652
0.00087354
5.18432e-05
6.83057e-07
1.54889e-09
2.50883e-12
1.89952e-12
1.91294e-12
1.91589e-12
1.91645e-12
1.91662e-12
1.9176e-12
1.92309e-12
1.92952e-12
1.98152e-12
2.02471e-12
2.47323e-12
2.71021e-12
8.69238e-12
1.01447e-11
0.00275732
0.000873918
5.18821e-05
6.83741e-07
1.55099e-09
2.51001e-12
1.89952e-12
1.91294e-12
1.91589e-12
1.91645e-12
1.91662e-12
1.9176e-12
1.92309e-12
1.92952e-12
1.98152e-12
2.02471e-12
2.47324e-12
2.71021e-12
8.69238e-12
1.01447e-11
0.00275788
0.000874147
5.19037e-05
6.84112e-07
1.55215e-09
2.51067e-12
1.89952e-12
1.91294e-12
1.91589e-12
1.91645e-12
1.91662e-12
1.9176e-12
1.92309e-12
1.92952e-12
1.98152e-12
2.02471e-12
2.47324e-12
2.71021e-12
8.69238e-12
1.01447e-11
0.0027607
0.000875488
5.20416e-05
6.86543e-07
1.55964e-09
2.51487e-12
1.89952e-12
1.91294e-12
1.91589e-12
1.91645e-12
1.91662e-12
1.9176e-12
1.92309e-12
1.92952e-12
1.98152e-12
2.02471e-12
2.47323e-12
2.71021e-12
8.69238e-12
1.01447e-11
0.00276207
0.000876043
5.20938e-05
6.87446e-07
1.56245e-09
2.51647e-12
1.89952e-12
1.91294e-12
1.91589e-12
1.91645e-12
1.91662e-12
1.9176e-12
1.92309e-12
1.92952e-12
1.98152e-12
2.02471e-12
2.47323e-12
2.71021e-12
8.69237e-12
1.01447e-11
0.00276791
0.000878903
5.23958e-05
6.92846e-07
1.57918e-09
2.52587e-12
1.89951e-12
1.91294e-12
1.91589e-12
1.91645e-12
1.91662e-12
1.91759e-12
1.92308e-12
1.92951e-12
1.98151e-12
2.0247e-12
2.47321e-12
2.71018e-12
8.69228e-12
1.01446e-11
0.00277028
0.00087988
5.24902e-05
6.94505e-07
1.58437e-09
2.52882e-12
1.89951e-12
1.91294e-12
1.91589e-12
1.91645e-12
1.91662e-12
1.91759e-12
1.92308e-12
1.92951e-12
1.9815e-12
2.02469e-12
2.47319e-12
2.71017e-12
8.69222e-12
1.01445e-11
0.00276843
0.000881458
5.28737e-05
7.02362e-07
1.6097e-09
2.54273e-12
1.89953e-12
1.91294e-12
1.91588e-12
1.91644e-12
1.91661e-12
1.91751e-12
1.92299e-12
1.92941e-12
1.98134e-12
2.0245e-12
2.4727e-12
2.70965e-12
8.68968e-12
1.01423e-11
0.0027681
0.000881693
5.29341e-05
7.03556e-07
1.61352e-09
2.54478e-12
1.89954e-12
1.91294e-12
1.91588e-12
1.91644e-12
1.91661e-12
1.9175e-12
1.92297e-12
1.92939e-12
1.9813e-12
2.02445e-12
2.47255e-12
2.70949e-12
8.68889e-12
1.01415e-11
0.0025983
0.000824815
4.86622e-05
6.30782e-07
1.39721e-09
2.4211e-12
1.89996e-12
1.91306e-12
1.91593e-12
1.91648e-12
1.91667e-12
1.91777e-12
1.92312e-12
1.92942e-12
1.98042e-12
2.02305e-12
2.46515e-12
2.70049e-12
8.60992e-12
1.00449e-11
0.0256897
0.010465
0.000903894
1.50709e-05
4.1115e-08
8.04432e-11
6.1715e-11
6.21848e-11
6.22884e-11
6.23084e-11
6.23151e-11
6.23515e-11
6.25277e-11
6.2734e-11
6.44004e-11
6.57843e-11
8.0138e-11
8.77052e-11
2.77265e-10
3.22323e-10
0.0268975
0.0110275
0.000970406
1.65859e-05
4.67333e-08
8.4308e-11
6.16996e-11
6.21805e-11
6.22867e-11
6.23072e-11
6.23132e-11
6.23428e-11
6.2523e-11
6.27331e-11
6.44294e-11
6.58304e-11
8.03804e-11
8.79986e-11
2.79803e-10
3.25416e-10
0.0268977
0.0110241
0.000969205
1.65553e-05
4.66149e-08
8.42327e-11
6.16993e-11
6.21804e-11
6.22867e-11
6.23073e-11
6.23132e-11
6.23433e-11
6.25237e-11
6.27338e-11
6.44308e-11
6.58321e-11
8.0385e-11
8.80035e-11
2.79828e-10
3.25441e-10
0.0269138
0.0110075
0.000962195
1.63662e-05
4.58673e-08
8.37432e-11
6.16988e-11
6.21805e-11
6.22869e-11
6.23075e-11
6.23136e-11
6.23458e-11