/*--------------------------------*- C++ -*----------------------------------*\
  =========                 |
  \\      /  F ield         | OpenFOAM: The Open Source CFD Toolbox
   \\    /   O peration     | Website:  https://openfoam.org
    \\  /    A nd           | Version:  8
     \\/     M anipulation  |
\*---------------------------------------------------------------------------*/
FoamFile
{
    version     2.0;
    format      ascii;
    class       volScalarField;
    location    "4.3";
    object      p;
}
// * * * * * * * * * * * * * * * * * * * * * * * * * * * * * * * * * * * * * //

dimensions      [0 2 -2 0 0 0 0];

internalField   nonuniform List<scalar> 
180000
(
0.000902164
0.000841202
0.000879503
0.000749288
0.000818225
0.000887598
0.000826868
0.000864885
0.000736
0.000803791
0.000886757
0.000826065
0.000864044
0.000735297
0.000802998
0.000882429
0.000821904
0.000859699
0.000731627
0.000798922
0.000881835
0.000821339
0.000859102
0.000731132
0.000798362
0.000879834
0.000819428
0.000857088
0.000729454
0.000796477
0.000879497
0.000819107
0.000856747
0.000729172
0.000796156
0.000878577
0.000818231
0.00085582
0.000728402
0.000795288
0.000878432
0.000818092
0.000855673
0.000728281
0.000795149
0.000878165
0.000817838
0.000855404
0.000728057
0.000794897
0.000878165
0.000817838
0.000855404
0.000728057
0.000794897
0.000878432
0.000818092
0.000855673
0.000728281
0.000795149
0.000878577
0.000818231
0.00085582
0.000728402
0.000795288
0.000879497
0.000819107
0.000856747
0.000729172
0.000796156
0.000879834
0.000819428
0.000857088
0.000729454
0.000796477
0.000881835
0.000821339
0.000859102
0.000731132
0.000798362
0.000882429
0.000821904
0.000859699
0.000731627
0.000798922
0.000886757
0.000826065
0.000864044
0.000735297
0.000802998
0.000887598
0.000826868
0.000864885
0.000736
0.000803791
0.000902164
0.000841202
0.000879503
0.000749288
0.000818225
0.00073549
0.00070734
0.000725962
0.000657055
0.000696212
0.000729156
0.000700209
0.000719264
0.000649262
0.000688693
0.000728782
0.000699802
0.00071887
0.000648843
0.000688272
0.000726816
0.00069765
0.000716793
0.000646617
0.000686067
0.000726547
0.000697358
0.000716508
0.000646318
0.000685765
0.000725629
0.000696362
0.000715537
0.000645295
0.000684738
0.000725475
0.000696196
0.000715373
0.000645123
0.000684564
0.000725051
0.000695737
0.000714925
0.000644653
0.00068409
0.000724985
0.000695665
0.000714854
0.000644579
0.000684014
0.000724862
0.000695532
0.000714723
0.000644442
0.000683876
0.000724862
0.000695532
0.000714723
0.000644442
0.000683876
0.000724985
0.000695665
0.000714854
0.000644579
0.000684014
0.000725051
0.000695737
0.000714925
0.000644653
0.00068409
0.000725475
0.000696196
0.000715373
0.000645123
0.000684564
0.000725629
0.000696362
0.000715537
0.000645295
0.000684738
0.000726547
0.000697358
0.000716508
0.000646318
0.000685765
0.000726816
0.00069765
0.000716793
0.000646617
0.000686067
0.000728782
0.000699802
0.00071887
0.000648843
0.000688272
0.000729156
0.000700209
0.000719264
0.000649262
0.000688693
0.00073549
0.00070734
0.000725962
0.000657055
0.000696212
0.000528027
0.000505638
0.0005209
0.000466991
0.000499957
0.000522931
0.000500179
0.000515622
0.000461323
0.000494268
0.00052263
0.000499866
0.000515311
0.000461016
0.000493947
0.000521017
0.000498182
0.000513641
0.000459353
0.000492236
0.000520799
0.000497956
0.000513415
0.000459132
0.000492003
0.000520049
0.000497178
0.000512636
0.000458368
0.000491207
0.000519924
0.000497049
0.000512505
0.000458242
0.000491074
0.000519578
0.000496691
0.000512146
0.000457891
0.000490706
0.000519524
0.000496636
0.000512089
0.000457836
0.000490648
0.000519423
0.000496532
0.000511985
0.000457734
0.000490541
0.000519423
0.000496532
0.000511985
0.000457734
0.000490541
0.000519524
0.000496636
0.000512089
0.000457836
0.000490648
0.000519578
0.000496691
0.000512146
0.000457891
0.000490706
0.000519924
0.000497049
0.000512505
0.000458242
0.000491074
0.000520049
0.000497178
0.000512636
0.000458368
0.000491207
0.000520799
0.000497956
0.000513415
0.000459132
0.000492003
0.000521017
0.000498182
0.000513641
0.000459353
0.000492236
0.00052263
0.000499866
0.000515311
0.000461016
0.000493947
0.000522931
0.000500179
0.000515622
0.000461323
0.000494268
0.000528027
0.000505638
0.0005209
0.000466991
0.000499957
0.000493607
0.000467405
0.000485364
0.00042466
0.000463974
0.000487521
0.000461243
0.000479199
0.000418702
0.000457682
0.000487161
0.000460888
0.000478835
0.000418377
0.000457325
0.000485232
0.000458976
0.000476879
0.000416608
0.000455411
0.000484971
0.000458721
0.000476614
0.000416373
0.000455152
0.000484076
0.000457839
0.000475703
0.000415562
0.000454263
0.000483927
0.000457694
0.000475551
0.000415427
0.000454114
0.000483515
0.000457289
0.000475132
0.000415055
0.000453705
0.000483451
0.000457226
0.000475066
0.000414997
0.00045364
0.000483331
0.000457108
0.000474944
0.000414888
0.000453521
0.000483331
0.000457108
0.000474944
0.000414888
0.000453521
0.000483451
0.000457226
0.000475066
0.000414997
0.00045364
0.000483515
0.000457289
0.000475132
0.000415055
0.000453705
0.000483927
0.000457694
0.000475551
0.000415427
0.000454114
0.000484076
0.000457839
0.000475703
0.000415562
0.000454263
0.000484971
0.000458721
0.000476614
0.000416373
0.000455152
0.000485232
0.000458976
0.000476879
0.000416608
0.000455411
0.000487161
0.000460888
0.000478835
0.000418377
0.000457325
0.000487521
0.000461243
0.000479199
0.000418702
0.000457682
0.000493607
0.000467405
0.000485364
0.00042466
0.000463974
0.000516632
0.000488932
0.000508265
0.0004434
0.000488309
0.000510221
0.000482437
0.00050177
0.00043713
0.0004817
0.000509836
0.00048206
0.000501381
0.000436784
0.000481318
0.000507773
0.000480013
0.000499288
0.000434893
0.000479269
0.000507494
0.00047974
0.000499005
0.000434642
0.000478992
0.000506536
0.000478797
0.000498031
0.000433774
0.00047804
0.000506377
0.000478641
0.000497868
0.000433631
0.000477881
0.000505936
0.000478208
0.000497419
0.000433232
0.000477442
0.000505868
0.00047814
0.000497349
0.00043317
0.000477372
0.000505739
0.000478014
0.000497218
0.000433054
0.000477245
0.000505739
0.000478014
0.000497218
0.000433054
0.000477245
0.000505868
0.00047814
0.000497349
0.00043317
0.000477372
0.000505936
0.000478208
0.000497419
0.000433232
0.000477442
0.000506377
0.000478641
0.000497868
0.000433631
0.000477881
0.000506536
0.000478797
0.000498031
0.000433774
0.00047804
0.000507494
0.00047974
0.000499005
0.000434642
0.000478992
0.000507773
0.000480013
0.000499288
0.000434893
0.000479269
0.000509836
0.00048206
0.000501381
0.000436784
0.000481318
0.000510221
0.000482437
0.00050177
0.00043713
0.0004817
0.000516632
0.000488932
0.000508265
0.0004434
0.000488309
0.000529419
0.000502298
0.000521715
0.000456929
0.000505451
0.000523193
0.000495943
0.000515391
0.000450735
0.000498986
0.000522815
0.000495569
0.000515008
0.000450389
0.000498606
0.000520769
0.000493526
0.000512928
0.000448481
0.000496551
0.000520494
0.000493254
0.000512647
0.00044823
0.000496274
0.000519543
0.000492311
0.000511677
0.000447353
0.000495318
0.000519385
0.000492156
0.000511516
0.000447209
0.000495158
0.000518948
0.000491722
0.000511069
0.000446806
0.000494717
0.00051888
0.000491655
0.000510999
0.000446744
0.000494648
0.000518752
0.000491529
0.000510869
0.000446627
0.00049452
0.000518752
0.000491529
0.000510869
0.000446627
0.00049452
0.00051888
0.000491655
0.000510999
0.000446744
0.000494648
0.000518948
0.000491722
0.000511069
0.000446806
0.000494717
0.000519385
0.000492156
0.000511516
0.000447209
0.000495158
0.000519543
0.000492311
0.000511677
0.000447353
0.000495318
0.000520494
0.000493254
0.000512647
0.00044823
0.000496274
0.000520769
0.000493526
0.000512928
0.000448481
0.000496551
0.000522815
0.000495569
0.000515008
0.000450389
0.000498606
0.000523193
0.000495943
0.000515391
0.000450735
0.000498986
0.000529419
0.000502298
0.000521715
0.000456929
0.000505451
0.000529342
0.00050297
0.000522341
0.000458431
0.000510235
0.000523329
0.000496822
0.000516232
0.000452418
0.000503986
0.00052296
0.000496456
0.000515858
0.000452078
0.000503613
0.000520944
0.000494439
0.000513807
0.000450187
0.000501576
0.000520674
0.000494172
0.000513531
0.000449939
0.000501302
0.000519735
0.00049324
0.000512574
0.000449069
0.000500354
0.000519581
0.000493087
0.000512415
0.000448926
0.000500196
0.000519149
0.000492659
0.000511974
0.000448526
0.000499758
0.000519082
0.000492592
0.000511905
0.000448465
0.00049969
0.000518956
0.000492468
0.000511777
0.000448348
0.000499563
0.000518956
0.000492468
0.000511777
0.000448348
0.000499563
0.000519082
0.000492592
0.000511905
0.000448465
0.00049969
0.000519149
0.000492659
0.000511974
0.000448526
0.000499758
0.000519581
0.000493087
0.000512415
0.000448926
0.000500196
0.000519735
0.00049324
0.000512574
0.000449069
0.000500354
0.000520674
0.000494172
0.000513531
0.000449939
0.000501302
0.000520944
0.000494439
0.000513807
0.000450187
0.000501576
0.00052296
0.000496456
0.000515858
0.000452078
0.000503613
0.000523329
0.000496822
0.000516232
0.000452418
0.000503986
0.000529342
0.00050297
0.000522341
0.000458431
0.000510235
0.000526713
0.000500756
0.000520273
0.00045678
0.000511918
0.000520827
0.000494747
0.000514298
0.00045091
0.00050582
0.000520462
0.000494386
0.000513929
0.000450575
0.000505451
0.000518453
0.000492378
0.000511886
0.000448692
0.000503417
0.000518184
0.000492113
0.000511612
0.000448445
0.000503144
0.000517248
0.000491183
0.000510658
0.000447578
0.000502196
0.000517094
0.000491031
0.0005105
0.000447436
0.000502039
0.000516663
0.000490604
0.00051006
0.000447038
0.000501601
0.000516596
0.000490539
0.000509992
0.000446976
0.000501533
0.000516471
0.000490415
0.000509863
0.00044686
0.000501405
0.000516471
0.000490415
0.000509863
0.00044686
0.000501405
0.000516596
0.000490539
0.000509992
0.000446976
0.000501533
0.000516663
0.000490604
0.00051006
0.000447038
0.000501601
0.000517094
0.000491031
0.0005105
0.000447436
0.000502039
0.000517248
0.000491183
0.000510658
0.000447578
0.000502196
0.000518184
0.000492113
0.000511612
0.000448445
0.000503144
0.000518453
0.000492378
0.000511886
0.000448692
0.000503417
0.000520462
0.000494386
0.000513929
0.000450575
0.000505451
0.000520827
0.000494747
0.000514298
0.00045091
0.00050582
0.000526713
0.000500756
0.000520273
0.00045678
0.000511918
0.000525471
0.000499784
0.000519527
0.000456224
0.000514343
0.000519678
0.000493879
0.000513652
0.000450462
0.000508354
0.000519316
0.00049352
0.000513285
0.000450129
0.000507986
0.000517304
0.000491512
0.000511241
0.000448246
0.000505946
0.000517036
0.000491247
0.000510968
0.000448
0.000505673
0.000516097
0.000490317
0.000510012
0.000447131
0.000504721
0.000515943
0.000490165
0.000509854
0.00044699
0.000504564
0.000515511
0.000489738
0.000509413
0.000446591
0.000504124
0.000515445
0.000489672
0.000509345
0.000446529
0.000504056
0.000515319
0.000489548
0.000509217
0.000446413
0.000503928
0.000515319
0.000489548
0.000509217
0.000446413
0.000503928
0.000515445
0.000489672
0.000509345
0.000446529
0.000504056
0.000515511
0.000489738
0.000509413
0.000446591
0.000504124
0.000515943
0.000490165
0.000509854
0.00044699
0.000504564
0.000516097
0.000490317
0.000510012
0.000447131
0.000504721
0.000517036
0.000491247
0.000510968
0.000448
0.000505673
0.000517304
0.000491512
0.000511241
0.000448246
0.000505946
0.000519316
0.00049352
0.000513285
0.000450129
0.000507986
0.000519678
0.000493879
0.000513652
0.000450462
0.000508354
0.000525471
0.000499784
0.000519527
0.000456224
0.000514343
0.000525168
0.000499754
0.00051971
0.000456662
0.000517058
0.00051947
0.000493951
0.000513936
0.000451001
0.000511166
0.00051911
0.000493595
0.000513571
0.000450671
0.0005108
0.000517097
0.000491586
0.000511527
0.000448786
0.000508754
0.00051683
0.000491323
0.000511255
0.00044854
0.000508481
0.000515889
0.000490391
0.000510296
0.00044767
0.000507524
0.000515735
0.00049024
0.000510139
0.000447529
0.000507367
0.000515302
0.000489811
0.000509698
0.000447128
0.000506925
0.000515236
0.000489746
0.000509629
0.000447067
0.000506857
0.00051511
0.000489621
0.000509501
0.000446951
0.000506729
0.00051511
0.000489621
0.000509501
0.000446951
0.000506729
0.000515236
0.000489746
0.000509629
0.000447067
0.000506857
0.000515302
0.000489811
0.000509698
0.000447128
0.000506925
0.000515735
0.00049024
0.000510139
0.000447529
0.000507367
0.000515889
0.000490391
0.000510296
0.00044767
0.000507524
0.00051683
0.000491323
0.000511255
0.00044854
0.000508481
0.000517097
0.000491586
0.000511527
0.000448786
0.000508754
0.00051911
0.000493595
0.000513571
0.000450671
0.0005108
0.00051947
0.000493951
0.000513936
0.000451001
0.000511166
0.000525168
0.000499754
0.00051971
0.000456662
0.000517058
0.000524959
0.000499836
0.000519981
0.000457301
0.000518921
0.000519362
0.00049414
0.000514312
0.000451742
0.000513112
0.000519005
0.000493787
0.000513951
0.000451414
0.000512748
0.000516993
0.000491781
0.000511909
0.000449529
0.000510697
0.000516727
0.000491518
0.000511637
0.000449284
0.000510424
0.000515785
0.000490586
0.000510679
0.000448412
0.000509464
0.000515632
0.000490435
0.000510522
0.000448271
0.000509306
0.000515199
0.000490006
0.00051008
0.00044787
0.000508863
0.000515132
0.000489941
0.000510012
0.000447809
0.000508794
0.000515006
0.000489816
0.000509883
0.000447692
0.000508665
0.000515006
0.000489816
0.000509883
0.000447692
0.000508665
0.000515132
0.000489941
0.000510012
0.000447809
0.000508794
0.000515199
0.000490006
0.00051008
0.00044787
0.000508863
0.000515632
0.000490435
0.000510522
0.000448271
0.000509306
0.000515785
0.000490586
0.000510679
0.000448412
0.000509464
0.000516727
0.000491518
0.000511637
0.000449284
0.000510424
0.000516993
0.000491781
0.000511909
0.000449529
0.000510697
0.000519005
0.000493787
0.000513951
0.000451414
0.000512748
0.000519362
0.00049414
0.000514312
0.000451742
0.000513112
0.000524959
0.000499836
0.000519981
0.000457301
0.000518921
0.000524637
0.000499801
0.000520122
0.000457837
0.000517719
0.00051914
0.00049421
0.000514558
0.00045238
0.00051201
0.000518785
0.00049386
0.000514199
0.000452054
0.000511648
0.000516776
0.000491857
0.00051216
0.00045017
0.0005096
0.00051651
0.000491596
0.00051189
0.000449926
0.000509329
0.000515568
0.000490663
0.000510931
0.000449053
0.000508369
0.000515416
0.000490513
0.000510775
0.000448912
0.000508211
0.000514982
0.000490084
0.000510333
0.00044851
0.000507768
0.000514916
0.000490019
0.000510265
0.000448449
0.0005077
0.00051479
0.000489895
0.000510136
0.000448332
0.00050757
0.00051479
0.000489895
0.000510136
0.000448332
0.00050757
0.000514916
0.000490019
0.000510265
0.000448449
0.0005077
0.000514982
0.000490084
0.000510333
0.00044851
0.000507768
0.000515416
0.000490513
0.000510775
0.000448912
0.000508211
0.000515568
0.000490663
0.000510931
0.000449053
0.000508369
0.00051651
0.000491596
0.00051189
0.000449926
0.000509329
0.000516776
0.000491857
0.00051216
0.00045017
0.0005096
0.000518785
0.00049386
0.000514199
0.000452054
0.000511648
0.00051914
0.00049421
0.000514558
0.00045238
0.00051201
0.000524637
0.000499801
0.000520122
0.000457837
0.000517719
0.000524276
0.000499715
0.000520205
0.000458243
0.000515645
0.000518875
0.000494226
0.000514742
0.000452886
0.000510038
0.000518523
0.000493879
0.000514387
0.000452563
0.00050968
0.000516516
0.000491879
0.00051235
0.00045068
0.000507639
0.000516252
0.000491619
0.000512081
0.000450436
0.000507368
0.00051531
0.000490686
0.000511122
0.000449562
0.000506409
0.000515157
0.000490536
0.000510967
0.000449422
0.000506253
0.000514723
0.000490108
0.000510524
0.00044902
0.00050581
0.000514657
0.000490043
0.000510457
0.000448959
0.000505742
0.000514531
0.000489918
0.000510328
0.000448842
0.000505613
0.000514531
0.000489918
0.000510328
0.000448842
0.000505613
0.000514657
0.000490043
0.000510457
0.000448959
0.000505742
0.000514723
0.000490108
0.000510524
0.00044902
0.00050581
0.000515157
0.000490536
0.000510967
0.000449422
0.000506253
0.00051531
0.000490686
0.000511122
0.000449562
0.000506409
0.000516252
0.000491619
0.000512081
0.000450436
0.000507368
0.000516516
0.000491879
0.00051235
0.00045068
0.000507639
0.000518523
0.000493879
0.000514387
0.000452563
0.00050968
0.000518875
0.000494226
0.000514742
0.000452886
0.000510038
0.000524276
0.000499715
0.000520205
0.000458243
0.000515645
0.000523938
0.000499639
0.000520293
0.000458567
0.000513831
0.000518631
0.00049425
0.00051493
0.000453308
0.000508324
0.000518282
0.000493906
0.000514577
0.000452987
0.000507969
0.000516278
0.00049191
0.000512544
0.000451106
0.000505934
0.000516014
0.00049165
0.000512276
0.000450863
0.000505665
0.000515072
0.000490718
0.000511317
0.000449989
0.000504707
0.00051492
0.000490568
0.000511162
0.000449848
0.000504551
0.000514485
0.000490139
0.000510719
0.000449446
0.000504108
0.00051442
0.000490075
0.000510651
0.000449385
0.00050404
0.000514293
0.00048995
0.000510523
0.000449268
0.000503911
0.000514293
0.00048995
0.000510523
0.000449268
0.000503911
0.00051442
0.000490075
0.000510651
0.000449385
0.00050404
0.000514485
0.000490139
0.000510719
0.000449446
0.000504108
0.00051492
0.000490568
0.000511162
0.000449848
0.000504551
0.000515072
0.000490718
0.000511317
0.000449989
0.000504707
0.000516014
0.00049165
0.000512276
0.000450863
0.000505665
0.000516278
0.00049191
0.000512544
0.000451106
0.000505934
0.000518282
0.000493906
0.000514577
0.000452987
0.000507969
0.000518631
0.00049425
0.00051493
0.000453308
0.000508324
0.000523938
0.000499639
0.000520293
0.000458567
0.000513831
0.000523631
0.000499586
0.000520398
0.00045883
0.000512279
0.000518416
0.000494294
0.000515131
0.000453667
0.000506868
0.00051807
0.000493952
0.000514781
0.000453349
0.000506517
0.000516069
0.00049196
0.000512752
0.000451471
0.000504487
0.000515806
0.000491701
0.000512485
0.000451229
0.00050422
0.000514863
0.000490769
0.000511526
0.000450353
0.000503262
0.000514712
0.00049062
0.000511371
0.000450213
0.000503107
0.000514277
0.000490191
0.000510928
0.00044981
0.000502665
0.000514211
0.000490126
0.000510861
0.00044975
0.000502597
0.000514085
0.000490002
0.000510732
0.000449633
0.000502468
0.000514085
0.000490002
0.000510732
0.000449633
0.000502468
0.000514211
0.000490126
0.000510861
0.00044975
0.000502597
0.000514277
0.000490191
0.000510928
0.00044981
0.000502665
0.000514712
0.00049062
0.000511371
0.000450213
0.000503107
0.000514863
0.000490769
0.000511526
0.000450353
0.000503262
0.000515806
0.000491701
0.000512485
0.000451229
0.00050422
0.000516069
0.00049196
0.000512752
0.000451471
0.000504487
0.00051807
0.000493952
0.000514781
0.000453349
0.000506517
0.000518416
0.000494294
0.000515131
0.000453667
0.000506868
0.000523631
0.000499586
0.000520398
0.00045883
0.000512279
0.000523346
0.000499546
0.000520512
0.000459033
0.000510791
0.000518222
0.00049435
0.00051534
0.000453966
0.000505474
0.000517878
0.00049401
0.000514993
0.000453649
0.000505125
0.00051588
0.000492022
0.000512968
0.000451774
0.000503102
0.000515618
0.000491764
0.000512702
0.000451533
0.000502836
0.000514675
0.000490832
0.000511742
0.000450658
0.000501879
0.000514524
0.000490684
0.000511588
0.000450518
0.000501725
0.000514089
0.000490254
0.000511145
0.000450115
0.000501282
0.000514024
0.00049019
0.000511078
0.000450054
0.000501215
0.000513897
0.000490065
0.000510949
0.000449937
0.000501086
0.000513897
0.000490065
0.000510949
0.000449937
0.000501086
0.000514024
0.00049019
0.000511078
0.000450054
0.000501215
0.000514089
0.000490254
0.000511145
0.000450115
0.000501282
0.000514524
0.000490684
0.000511588
0.000450518
0.000501725
0.000514675
0.000490832
0.000511742
0.000450658
0.000501879
0.000515618
0.000491764
0.000512702
0.000451533
0.000502836
0.00051588
0.000492022
0.000512968
0.000451774
0.000503102
0.000517878
0.00049401
0.000514993
0.000453649
0.000505125
0.000518222
0.00049435
0.00051534
0.000453966
0.000505474
0.000523346
0.000499546
0.000520512
0.000459033
0.000510791
0.000523079
0.000499515
0.000520634
0.000459174
0.000509297
0.000518043
0.000494412
0.000515554
0.0004542
0.000504071
0.000517701
0.000494076
0.000515209
0.000453886
0.000503725
0.000515707
0.000492091
0.000513188
0.000452015
0.000501709
0.000515447
0.000491835
0.000512923
0.000451774
0.000501444
0.000514503
0.000490903
0.000511964
0.000450899
0.000500488
0.000514353
0.000490755
0.00051181
0.00045076
0.000500334
0.000513917
0.000490325
0.000511367
0.000450356
0.000499892
0.000513852
0.000490261
0.0005113
0.000450296
0.000499825
0.000513726
0.000490136
0.000511171
0.000450178
0.000499696
0.000513726
0.000490136
0.000511171
0.000450178
0.000499696
0.000513852
0.000490261
0.0005113
0.000450296
0.000499825
0.000513917
0.000490325
0.000511367
0.000450356
0.000499892
0.000514353
0.000490755
0.00051181
0.00045076
0.000500334
0.000514503
0.000490903
0.000511964
0.000450899
0.000500488
0.000515447
0.000491835
0.000512923
0.000451774
0.000501444
0.000515707
0.000492091
0.000513188
0.000452015
0.000501709
0.000517701
0.000494076
0.000515209
0.000453886
0.000503725
0.000518043
0.000494412
0.000515554
0.0004542
0.000504071
0.000523079
0.000499515
0.000520634
0.000459174
0.000509297
0.000522829
0.000499494
0.000520762
0.000459252
0.000507808
0.00051788
0.000494482
0.000515773
0.00045437
0.000502671
0.00051754
0.000494148
0.000515431
0.000454058
0.000502328
0.00051555
0.000492168
0.000513415
0.000452191
0.000500319
0.000515291
0.000491913
0.000513151
0.000451952
0.000500055
0.000514347
0.000490981
0.000512192
0.000451077
0.0004991
0.000514197
0.000490833
0.000512038
0.000450938
0.000498947
0.000513762
0.000490403
0.000511595
0.000450534
0.000498505
0.000513697
0.00049034
0.000511528
0.000450474
0.000498438
0.00051357
0.000490215
0.000511399
0.000450357
0.000498309
0.00051357
0.000490215
0.000511399
0.000450357
0.000498309
0.000513697
0.00049034
0.000511528
0.000450474
0.000498438
0.000513762
0.000490403
0.000511595
0.000450534
0.000498505
0.000514197
0.000490833
0.000512038
0.000450938
0.000498947
0.000514347
0.000490981
0.000512192
0.000451077
0.0004991
0.000515291
0.000491913
0.000513151
0.000451952
0.000500055
0.00051555
0.000492168
0.000513415
0.000452191
0.000500319
0.00051754
0.000494148
0.000515431
0.000454058
0.000502328
0.00051788
0.000494482
0.000515773
0.00045437
0.000502671
0.000522829
0.000499494
0.000520762
0.000459252
0.000507808
0.000522597
0.000499483
0.0005209
0.000459269
0.000506337
0.000517732
0.000494559
0.000516
0.000454477
0.000501287
0.000517395
0.000494228
0.00051566
0.000454168
0.000500947
0.000515409
0.000492253
0.000513649
0.000452306
0.000498945
0.00051515
0.000491998
0.000513386
0.000452067
0.000498682
0.000514207
0.000491067
0.000512427
0.000451192
0.000497729
0.000514058
0.00049092
0.000512274
0.000451054
0.000497576
0.000513622
0.00049049
0.00051183
0.00045065
0.000497134
0.000513557
0.000490426
0.000511764
0.00045059
0.000497068
0.00051343
0.000490301
0.000511635
0.000450473
0.000496939
0.00051343
0.000490301
0.000511635
0.000450473
0.000496939
0.000513557
0.000490426
0.000511764
0.00045059
0.000497068
0.000513622
0.00049049
0.00051183
0.00045065
0.000497134
0.000514058
0.00049092
0.000512274
0.000451054
0.000497576
0.000514207
0.000491067
0.000512427
0.000451192
0.000497729
0.00051515
0.000491998
0.000513386
0.000452067
0.000498682
0.000515409
0.000492253
0.000513649
0.000452306
0.000498945
0.000517395
0.000494228
0.00051566
0.000454168
0.000500947
0.000517732
0.000494559
0.000516
0.000454477
0.000501287
0.000522597
0.000499483
0.0005209
0.000459269
0.000506337
0.000522382
0.000499482
0.000521049
0.000459225
0.00050482
0.0005176
0.000494645
0.000516236
0.000454522
0.000499854
0.000517265
0.000494316
0.000515899
0.000454215
0.000499518
0.000515284
0.000492346
0.000513892
0.000452358
0.000497523
0.000515026
0.000492093
0.00051363
0.000452121
0.000497262
0.000514083
0.000491161
0.000512671
0.000451246
0.00049631
0.000513934
0.000491015
0.000512519
0.000451109
0.000496157
0.000513498
0.000490585
0.000512075
0.000450705
0.000495716
0.000513433
0.000490522
0.000512009
0.000450645
0.00049565
0.000513306
0.000490397
0.00051188
0.000450528
0.000495521
0.000513306
0.000490397
0.00051188
0.000450528
0.000495521
0.000513433
0.000490522
0.000512009
0.000450645
0.00049565
0.000513498
0.000490585
0.000512075
0.000450705
0.000495716
0.000513934
0.000491015
0.000512519
0.000451109
0.000496157
0.000514083
0.000491161
0.000512671
0.000451246
0.00049631
0.000515026
0.000492093
0.00051363
0.000452121
0.000497262
0.000515284
0.000492346
0.000513892
0.000452358
0.000497523
0.000517265
0.000494316
0.000515899
0.000454215
0.000499518
0.0005176
0.000494645
0.000516236
0.000454522
0.000499854
0.000522382
0.000499482
0.000521049
0.000459225
0.00050482
-1.62473e-05
1.57875e-05
2.81772e-06
6.96924e-07
2.50933e-07
1.80703e-07
1.65291e-07
1.62493e-07
1.61806e-07
1.61662e-07
1.61615e-07
1.61593e-07
1.61495e-07
1.61386e-07
1.60519e-07
1.59851e-07
1.53415e-07
1.50644e-07
1.11916e-07
1.07812e-07
-1.63159e-05
1.57479e-05
2.83206e-06
7.01888e-07
2.52152e-07
1.81003e-07
1.65343e-07
1.62492e-07
1.61789e-07
1.61642e-07
1.61593e-07
1.61571e-07
1.61471e-07
1.61359e-07
1.60478e-07
1.59803e-07
1.53295e-07
1.50518e-07
1.11616e-07
1.076e-07
-1.63093e-05
1.57374e-05
2.82878e-06
7.01439e-07
2.52063e-07
1.80991e-07
1.6534e-07
1.62492e-07
1.61789e-07
1.61641e-07
1.61593e-07
1.61571e-07
1.61471e-07
1.61359e-07
1.60477e-07
1.59802e-07
1.53293e-07
1.50516e-07
1.11613e-07
1.07598e-07
-1.62795e-05
1.56846e-05
2.81239e-06
6.99245e-07
2.51634e-07
1.80935e-07
1.65328e-07
1.62489e-07
1.61787e-07
1.6164e-07
1.61592e-07
1.61569e-07
1.61469e-07
1.61357e-07
1.60475e-07
1.59799e-07
1.53286e-07
1.50509e-07
1.11601e-07
1.07592e-07
-1.62739e-05
1.56764e-05
2.80946e-06
6.98788e-07
2.51531e-07
1.80918e-07
1.65324e-07
1.62488e-07
1.61787e-07
1.6164e-07
1.61592e-07
1.61569e-07
1.61469e-07
1.61357e-07
1.60475e-07
1.59799e-07
1.53286e-07
1.50509e-07
1.11601e-07
1.07591e-07
-1.62569e-05
1.56507e-05
2.8006e-06
6.9746e-07
2.51238e-07
1.8087e-07
1.65313e-07
1.62486e-07
1.61786e-07
1.6164e-07
1.61591e-07
1.61569e-07
1.61469e-07
1.61357e-07
1.60474e-07
1.59798e-07
1.53286e-07
1.50509e-07
1.11601e-07
1.07591e-07
-1.62537e-05
1.5646e-05
2.79893e-06
6.97194e-07
2.51176e-07
1.8086e-07
1.6531e-07
1.62486e-07
1.61786e-07
1.6164e-07
1.61591e-07
1.61569e-07
1.61469e-07
1.61357e-07
1.60474e-07
1.59798e-07
1.53286e-07
1.50509e-07
1.11601e-07
1.07591e-07
-1.62458e-05
1.56342e-05
2.79484e-06
6.96575e-07
2.51038e-07
1.80837e-07
1.65304e-07
1.62485e-07
1.61786e-07
1.6164e-07
1.61591e-07
1.61569e-07
1.61469e-07
1.61357e-07
1.60474e-07
1.59798e-07
1.53286e-07
1.50509e-07
1.11601e-07
1.07591e-07
-1.62444e-05
1.56321e-05
2.79411e-06
6.96461e-07
2.51011e-07
1.80832e-07
1.65303e-07
1.62484e-07
1.61786e-07
1.6164e-07
1.61591e-07
1.61569e-07
1.61469e-07
1.61357e-07
1.60474e-07
1.59798e-07
1.53286e-07
1.50509e-07
1.11601e-07
1.07591e-07
-1.62421e-05
1.56287e-05
2.79293e-06
6.96282e-07
2.50971e-07
1.80826e-07
1.65302e-07
1.62484e-07
1.61786e-07
1.6164e-07
1.61591e-07
1.61569e-07
1.61469e-07
1.61357e-07
1.60474e-07
1.59798e-07
1.53286e-07
1.50509e-07
1.11601e-07
1.07591e-07
-1.62421e-05
1.56287e-05
2.79293e-06
6.96282e-07
2.50971e-07
1.80826e-07
1.65302e-07
1.62484e-07
1.61786e-07
1.6164e-07
1.61591e-07
1.61569e-07
1.61469e-07
1.61357e-07
1.60474e-07
1.59798e-07
1.53286e-07
1.50509e-07
1.11601e-07
1.07591e-07
-1.62444e-05
1.56321e-05
2.79411e-06
6.96461e-07
2.51011e-07
1.80832e-07
1.65303e-07
1.62484e-07
1.61786e-07
1.6164e-07
1.61591e-07
1.61569e-07
1.61469e-07
1.61357e-07
1.60474e-07
1.59798e-07
1.53286e-07
1.50509e-07
1.11601e-07
1.07591e-07
-1.62458e-05
1.56342e-05
2.79484e-06
6.96575e-07
2.51038e-07
1.80837e-07
1.65304e-07
1.62485e-07
1.61786e-07
1.6164e-07
1.61591e-07
1.61569e-07
1.61469e-07
1.61357e-07
1.60474e-07
1.59798e-07
1.53286e-07
1.50509e-07
1.11601e-07
1.07591e-07
-1.62537e-05
1.5646e-05
2.79893e-06
6.97194e-07
2.51176e-07
1.8086e-07
1.6531e-07
1.62486e-07
1.61786e-07
1.6164e-07
1.61591e-07
1.61569e-07
1.61469e-07
1.61357e-07
1.60474e-07
1.59798e-07
1.53286e-07
1.50509e-07
1.11601e-07
1.07591e-07
-1.62569e-05
1.56507e-05
2.8006e-06
6.9746e-07
2.51238e-07
1.8087e-07
1.65313e-07
1.62486e-07
1.61786e-07
1.6164e-07
1.61591e-07
1.61569e-07
1.61469e-07
1.61357e-07
1.60474e-07
1.59798e-07
1.53286e-07
1.50509e-07
1.11601e-07
1.07591e-07
-1.62739e-05
1.56764e-05
2.80946e-06
6.98788e-07
2.51531e-07
1.80918e-07
1.65324e-07
1.62488e-07
1.61787e-07
1.6164e-07
1.61592e-07
1.61569e-07
1.61469e-07
1.61357e-07
1.60475e-07
1.59799e-07
1.53286e-07
1.50509e-07
1.11601e-07
1.07591e-07
-1.62795e-05
1.56846e-05
2.81239e-06
6.99245e-07
2.51634e-07
1.80935e-07
1.65328e-07
1.62489e-07
1.61787e-07
1.6164e-07
1.61592e-07
1.61569e-07
1.61469e-07
1.61357e-07
1.60475e-07
1.59799e-07
1.53286e-07
1.50509e-07
1.11601e-07
1.07592e-07
-1.63093e-05
1.57374e-05
2.82878e-06
7.01439e-07
2.52063e-07
1.80991e-07
1.6534e-07
1.62492e-07
1.61789e-07
1.61641e-07
1.61593e-07
1.61571e-07
1.61471e-07
1.61359e-07
1.60477e-07
1.59802e-07
1.53293e-07
1.50516e-07
1.11613e-07
1.07598e-07
-1.63159e-05
1.57479e-05
2.83206e-06
7.01888e-07
2.52152e-07
1.81003e-07
1.65343e-07
1.62492e-07
1.61789e-07
1.61642e-07
1.61593e-07
1.61571e-07
1.61471e-07
1.61359e-07
1.60478e-07
1.59803e-07
1.53295e-07
1.50518e-07
1.11616e-07
1.076e-07
-1.62473e-05
1.57875e-05
2.81772e-06
6.96924e-07
2.50933e-07
1.80703e-07
1.65291e-07
1.62493e-07
1.61806e-07
1.61662e-07
1.61615e-07
1.61593e-07
1.61495e-07
1.61386e-07
1.60519e-07
1.59851e-07
1.53415e-07
1.50644e-07
1.11916e-07
1.07812e-07
-1.5863e-05
1.5958e-05
2.84311e-06
7.02342e-07
2.5188e-07
1.80923e-07
1.65316e-07
1.62588e-07
1.61897e-07
1.61751e-07
1.61703e-07
1.61681e-07
1.61582e-07
1.6147e-07
1.60564e-07
1.59833e-07
1.53333e-07
1.50537e-07
1.11321e-07
1.07188e-07
-1.59266e-05
1.59182e-05
2.85762e-06
7.07363e-07
2.53113e-07
1.81226e-07
1.65369e-07
1.62586e-07
1.6188e-07
1.61731e-07
1.61681e-07
1.61659e-07
1.61557e-07
1.61444e-07
1.60522e-07
1.59784e-07
1.53212e-07
1.50409e-07
1.11017e-07
1.06972e-07
-1.59198e-05
1.59077e-05
2.8543e-06
7.06909e-07
2.53023e-07
1.81214e-07
1.65367e-07
1.62585e-07
1.6188e-07
1.6173e-07
1.61681e-07
1.61658e-07
1.61557e-07
1.61444e-07
1.60521e-07
1.59783e-07
1.5321e-07
1.50407e-07
1.11014e-07
1.0697e-07
-1.58891e-05
1.58543e-05
2.83776e-06
7.04694e-07
2.5259e-07
1.81158e-07