/*--------------------------------*- C++ -*----------------------------------*\
  =========                 |
  \\      /  F ield         | OpenFOAM: The Open Source CFD Toolbox
   \\    /   O peration     | Website:  https://openfoam.org
    \\  /    A nd           | Version:  8
     \\/     M anipulation  |
\*---------------------------------------------------------------------------*/
FoamFile
{
    version     2.0;
    format      ascii;
    class       volScalarField;
    location    "4.3";
    object      S1;
}
// * * * * * * * * * * * * * * * * * * * * * * * * * * * * * * * * * * * * * //

dimensions      [0 1 -1 0 0 0 0];

internalField   nonuniform List<scalar> 
180000
(
2.63641e-25
7.63541e-21
1.71274e-16
3.08943e-12
4.5937e-08
3.25273e-25
8.91212e-21
1.94118e-16
3.43142e-12
5.02073e-08
3.26003e-25
8.92702e-21
1.94364e-16
3.43454e-12
5.02357e-08
3.27802e-25
8.96454e-21
1.94989e-16
3.4427e-12
5.03114e-08
3.27424e-25
8.9563e-21
1.94825e-16
3.43987e-12
5.02686e-08
3.2626e-25
8.93135e-21
1.9434e-16
3.43175e-12
5.01498e-08
3.26039e-25
8.92653e-21
1.94245e-16
3.43012e-12
5.01253e-08
3.255e-25
8.91487e-21
1.94017e-16
3.4263e-12
5.00692e-08
3.25416e-25
8.91301e-21
1.9398e-16
3.42566e-12
5.00595e-08
3.25273e-25
8.9099e-21
1.93919e-16
3.42462e-12
5.00441e-08
3.25273e-25
8.9099e-21
1.93919e-16
3.42462e-12
5.00441e-08
3.25416e-25
8.91301e-21
1.9398e-16
3.42566e-12
5.00595e-08
3.255e-25
8.91487e-21
1.94017e-16
3.4263e-12
5.00692e-08
3.26039e-25
8.92653e-21
1.94245e-16
3.43012e-12
5.01253e-08
3.2626e-25
8.93135e-21
1.9434e-16
3.43175e-12
5.01498e-08
3.27424e-25
8.9563e-21
1.94825e-16
3.43987e-12
5.02686e-08
3.27802e-25
8.96454e-21
1.94989e-16
3.4427e-12
5.03114e-08
3.26003e-25
8.92702e-21
1.94364e-16
3.43454e-12
5.02357e-08
3.25273e-25
8.91212e-21
1.94118e-16
3.43142e-12
5.02073e-08
2.63641e-25
7.63541e-21
1.71274e-16
3.08943e-12
4.5937e-08
2.63637e-25
7.63517e-21
1.71262e-16
3.0915e-12
4.97876e-08
3.25268e-25
8.91183e-21
1.94106e-16
3.43355e-12
5.42306e-08
3.25999e-25
8.92673e-21
1.94351e-16
3.43667e-12
5.42572e-08
3.27797e-25
8.96424e-21
1.94977e-16
3.44481e-12
5.43238e-08
3.2742e-25
8.956e-21
1.94813e-16
3.44198e-12
5.42769e-08
3.26255e-25
8.93106e-21
1.94328e-16
3.43385e-12
5.41458e-08
3.26035e-25
8.92623e-21
1.94233e-16
3.43221e-12
5.41189e-08
3.25496e-25
8.91457e-21
1.94005e-16
3.42839e-12
5.40571e-08
3.25411e-25
8.91271e-21
1.93968e-16
3.42775e-12
5.40464e-08
3.25269e-25
8.9096e-21
1.93907e-16
3.42671e-12
5.40294e-08
3.25269e-25
8.9096e-21
1.93907e-16
3.42671e-12
5.40294e-08
3.25411e-25
8.91271e-21
1.93968e-16
3.42775e-12
5.40464e-08
3.25496e-25
8.91457e-21
1.94005e-16
3.42839e-12
5.40571e-08
3.26035e-25
8.92623e-21
1.94233e-16
3.43221e-12
5.41189e-08
3.26255e-25
8.93105e-21
1.94328e-16
3.43385e-12
5.41458e-08
3.2742e-25
8.956e-21
1.94813e-16
3.44198e-12
5.42769e-08
3.27797e-25
8.96424e-21
1.94977e-16
3.44481e-12
5.43238e-08
3.25999e-25
8.92673e-21
1.94351e-16
3.43667e-12
5.42572e-08
3.25268e-25
8.91183e-21
1.94106e-16
3.43355e-12
5.42306e-08
2.63637e-25
7.63517e-21
1.71262e-16
3.0915e-12
4.97876e-08
2.63633e-25
7.63472e-21
1.71251e-16
3.10424e-12
6.85106e-08
3.25264e-25
8.91129e-21
1.94092e-16
3.44657e-12
7.3514e-08
3.25995e-25
8.92619e-21
1.94337e-16
3.44968e-12
7.35329e-08
3.27793e-25
8.9637e-21
1.94963e-16
3.45777e-12
7.357e-08
3.27416e-25
8.95546e-21
1.94799e-16
3.45492e-12
7.35087e-08
3.26251e-25
8.93052e-21
1.94314e-16
3.44675e-12
7.33364e-08
3.26031e-25
8.92569e-21
1.94219e-16
3.4451e-12
7.33012e-08
3.25492e-25
8.91403e-21
1.93991e-16
3.44126e-12
7.32197e-08
3.25407e-25
8.91217e-21
1.93954e-16
3.44062e-12
7.32055e-08
3.25265e-25
8.90907e-21
1.93893e-16
3.43958e-12
7.31828e-08
3.25265e-25
8.90907e-21
1.93893e-16
3.43958e-12
7.31828e-08
3.25407e-25
8.91217e-21
1.93954e-16
3.44062e-12
7.32055e-08
3.25492e-25
8.91403e-21
1.93991e-16
3.44126e-12
7.32197e-08
3.26031e-25
8.92569e-21
1.94219e-16
3.4451e-12
7.33012e-08
3.26251e-25
8.93052e-21
1.94314e-16
3.44675e-12
7.33364e-08
3.27416e-25
8.95546e-21
1.94799e-16
3.45492e-12
7.35087e-08
3.27793e-25
8.9637e-21
1.94963e-16
3.45777e-12
7.357e-08
3.25995e-25
8.92619e-21
1.94337e-16
3.44968e-12
7.35329e-08
3.25264e-25
8.91129e-21
1.94092e-16
3.44657e-12
7.3514e-08
2.63633e-25
7.63472e-21
1.71251e-16
3.10424e-12
6.85106e-08
2.63629e-25
7.63395e-21
1.71256e-16
3.14271e-12
1.13383e-07
3.25259e-25
8.91038e-21
1.94093e-16
3.48557e-12
1.19206e-07
3.2599e-25
8.92529e-21
1.94339e-16
3.48865e-12
1.19211e-07
3.27789e-25
8.9628e-21
1.94964e-16
3.49661e-12
1.19204e-07
3.27411e-25
8.95456e-21
1.948e-16
3.49373e-12
1.1912e-07
3.26247e-25
8.92962e-21
1.94316e-16
3.48545e-12
1.18883e-07
3.26026e-25
8.9248e-21
1.9422e-16
3.48379e-12
1.18834e-07
3.25487e-25
8.91314e-21
1.93993e-16
3.47989e-12
1.18722e-07
3.25403e-25
8.91127e-21
1.93956e-16
3.47924e-12
1.18702e-07
3.2526e-25
8.90817e-21
1.93894e-16
3.47819e-12
1.1867e-07
3.2526e-25
8.90817e-21
1.93894e-16
3.47819e-12
1.1867e-07
3.25403e-25
8.91127e-21
1.93956e-16
3.47924e-12
1.18702e-07
3.25487e-25
8.91314e-21
1.93993e-16
3.47989e-12
1.18722e-07
3.26026e-25
8.9248e-21
1.9422e-16
3.48379e-12
1.18834e-07
3.26247e-25
8.92962e-21
1.94316e-16
3.48545e-12
1.18883e-07
3.27411e-25
8.95456e-21
1.948e-16
3.49373e-12
1.1912e-07
3.27789e-25
8.9628e-21
1.94964e-16
3.49661e-12
1.19204e-07
3.2599e-25
8.92529e-21
1.94339e-16
3.48865e-12
1.19211e-07
3.25259e-25
8.91038e-21
1.94093e-16
3.48557e-12
1.19206e-07
2.63629e-25
7.63395e-21
1.71256e-16
3.14271e-12
1.13383e-07
2.63625e-25
7.63291e-21
1.71303e-16
3.22473e-12
1.8897e-07
3.25253e-25
8.90914e-21
1.94136e-16
3.56818e-12
1.95561e-07
3.25985e-25
8.92407e-21
1.94382e-16
3.57121e-12
1.95546e-07
3.27783e-25
8.96157e-21
1.95007e-16
3.5789e-12
1.95479e-07
3.27406e-25
8.95334e-21
1.94843e-16
3.57596e-12
1.95366e-07
3.26242e-25
8.92839e-21
1.94358e-16
3.56749e-12
1.95052e-07
3.26021e-25
8.92357e-21
1.94263e-16
3.56579e-12
1.94987e-07
3.25482e-25
8.91192e-21
1.94035e-16
3.56181e-12
1.94836e-07
3.25397e-25
8.91005e-21
1.93998e-16
3.56114e-12
1.94809e-07
3.25255e-25
8.90695e-21
1.93937e-16
3.56006e-12
1.94767e-07
3.25255e-25
8.90695e-21
1.93937e-16
3.56006e-12
1.94767e-07
3.25397e-25
8.91005e-21
1.93998e-16
3.56114e-12
1.94809e-07
3.25482e-25
8.91192e-21
1.94035e-16
3.56181e-12
1.94836e-07
3.26021e-25
8.92357e-21
1.94263e-16
3.56579e-12
1.94987e-07
3.26242e-25
8.92839e-21
1.94358e-16
3.56749e-12
1.95052e-07
3.27406e-25
8.95334e-21
1.94843e-16
3.57596e-12
1.95366e-07
3.27783e-25
8.96157e-21
1.95007e-16
3.5789e-12
1.95479e-07
3.25985e-25
8.92407e-21
1.94382e-16
3.57121e-12
1.95546e-07
3.25253e-25
8.90914e-21
1.94136e-16
3.56818e-12
1.95561e-07
2.63625e-25
7.63291e-21
1.71303e-16
3.22473e-12
1.8897e-07
2.6362e-25
7.63167e-21
1.71433e-16
3.36867e-12
2.96177e-07
3.25246e-25
8.90765e-21
1.94259e-16
3.7125e-12
3.03294e-07
3.25979e-25
8.9226e-21
1.94506e-16
3.71543e-12
3.03248e-07
3.27777e-25
8.9601e-21
1.9513e-16
3.72267e-12
3.03078e-07
3.274e-25
8.95187e-21
1.94966e-16
3.71963e-12
3.02932e-07
3.26235e-25
8.92693e-21
1.9448e-16
3.71086e-12
3.02524e-07
3.26015e-25
8.92211e-21
1.94385e-16
3.7091e-12
3.02438e-07
3.25476e-25
8.91046e-21
1.94157e-16
3.70498e-12
3.02242e-07
3.25391e-25
8.9086e-21
1.9412e-16
3.70429e-12
3.02206e-07
3.25249e-25
8.90549e-21
1.94059e-16
3.70316e-12
3.0215e-07
3.25249e-25
8.90549e-21
1.94059e-16
3.70316e-12
3.0215e-07
3.25391e-25
8.9086e-21
1.9412e-16
3.70429e-12
3.02206e-07
3.25476e-25
8.91046e-21
1.94157e-16
3.70498e-12
3.02242e-07
3.26015e-25
8.92211e-21
1.94385e-16
3.7091e-12
3.02438e-07
3.26235e-25
8.92693e-21
1.9448e-16
3.71086e-12
3.02524e-07
3.274e-25
8.95187e-21
1.94966e-16
3.71963e-12
3.02932e-07
3.27777e-25
8.9601e-21
1.9513e-16
3.72267e-12
3.03078e-07
3.25979e-25
8.9226e-21
1.94506e-16
3.71543e-12
3.03248e-07
3.25246e-25
8.90765e-21
1.94259e-16
3.7125e-12
3.03294e-07
2.6362e-25
7.63167e-21
1.71433e-16
3.36867e-12
2.96177e-07
2.63614e-25
7.63035e-21
1.71695e-16
3.59334e-12
4.35703e-07
3.25238e-25
8.90603e-21
1.94513e-16
3.93697e-12
4.42997e-07
3.25972e-25
8.921e-21
1.94759e-16
3.93975e-12
4.42908e-07
3.2777e-25
8.95849e-21
1.95382e-16
3.94627e-12
4.42561e-07
3.27393e-25
8.95026e-21
1.95217e-16
3.94308e-12
4.42372e-07
3.26228e-25
8.92533e-21
1.94731e-16
3.93385e-12
4.41841e-07
3.26008e-25
8.92051e-21
1.94636e-16
3.93202e-12
4.4173e-07
3.25469e-25
8.90886e-21
1.94408e-16
3.92768e-12
4.41475e-07
3.25384e-25
8.907e-21
1.9437e-16
3.92695e-12
4.41429e-07
3.25242e-25
8.9039e-21
1.94309e-16
3.92576e-12
4.41356e-07
3.25242e-25
8.9039e-21
1.94309e-16
3.92576e-12
4.41356e-07
3.25384e-25
8.907e-21
1.9437e-16
3.92695e-12
4.41429e-07
3.25469e-25
8.90886e-21
1.94408e-16
3.92768e-12
4.41475e-07
3.26008e-25
8.92051e-21
1.94636e-16
3.93202e-12
4.4173e-07
3.26228e-25
8.92533e-21
1.94731e-16
3.93385e-12
4.41841e-07
3.27393e-25
8.95026e-21
1.95217e-16
3.94308e-12
4.42372e-07
3.2777e-25
8.95849e-21
1.95382e-16
3.94627e-12
4.42561e-07
3.25972e-25
8.921e-21
1.94759e-16
3.93975e-12
4.42908e-07
3.25238e-25
8.90603e-21
1.94513e-16
3.93697e-12
4.42997e-07
2.63614e-25
7.63035e-21
1.71695e-16
3.59334e-12
4.35703e-07
2.63607e-25
7.62906e-21
1.72154e-16
3.91815e-12
6.08514e-07
3.25228e-25
8.90439e-21
1.94958e-16
4.26057e-12
6.15518e-07
3.25964e-25
8.91938e-21
1.95205e-16
4.26313e-12
6.15368e-07
3.27762e-25
8.95687e-21
1.95824e-16
4.26855e-12
6.14742e-07
3.27385e-25
8.94864e-21
1.95659e-16
4.26515e-12
6.14501e-07
3.26221e-25
8.92372e-21
1.95172e-16
4.25528e-12
6.13805e-07
3.26e-25
8.9189e-21
1.95076e-16
4.25333e-12
6.13664e-07
3.25461e-25
8.90725e-21
1.94847e-16
4.24869e-12
6.13332e-07
3.25377e-25
8.90539e-21
1.9481e-16
4.24791e-12
6.13272e-07
3.25234e-25
8.90229e-21
1.94749e-16
4.24663e-12
6.13176e-07
3.25234e-25
8.90229e-21
1.94749e-16
4.24663e-12
6.13176e-07
3.25377e-25
8.90539e-21
1.9481e-16
4.24791e-12
6.13272e-07
3.25461e-25
8.90725e-21
1.94847e-16
4.24869e-12
6.13332e-07
3.26e-25
8.9189e-21
1.95076e-16
4.25333e-12
6.13664e-07
3.26221e-25
8.92372e-21
1.95172e-16
4.25528e-12
6.13805e-07
3.27385e-25
8.94864e-21
1.95659e-16
4.26515e-12
6.14501e-07
3.27762e-25
8.95687e-21
1.95824e-16
4.26855e-12
6.14742e-07
3.25964e-25
8.91938e-21
1.95205e-16
4.26313e-12
6.15368e-07
3.25228e-25
8.90439e-21
1.94958e-16
4.26057e-12
6.15518e-07
2.63607e-25
7.62906e-21
1.72154e-16
3.91815e-12
6.08514e-07
2.63599e-25
7.62798e-21
1.72884e-16
4.36289e-12
8.15215e-07
3.25218e-25
8.9029e-21
1.95671e-16
4.70257e-12
8.21305e-07
3.25955e-25
8.91793e-21
1.95916e-16
4.70482e-12
8.21073e-07
3.27753e-25
8.9554e-21
1.96531e-16
4.70864e-12
8.20039e-07
3.27376e-25
8.94718e-21
1.96366e-16
4.70497e-12
8.19731e-07
3.26212e-25
8.92226e-21
1.95876e-16
4.69421e-12
8.18822e-07
3.25992e-25
8.91745e-21
1.9578e-16
4.6921e-12
8.18642e-07
3.25453e-25
8.9058e-21
1.9555e-16
4.68705e-12
8.1821e-07
3.25368e-25
8.90394e-21
1.95513e-16
4.6862e-12
8.18134e-07
3.25226e-25
8.90084e-21
1.95451e-16
4.6848e-12
8.18009e-07
3.25226e-25
8.90084e-21
1.95451e-16
4.6848e-12
8.18009e-07
3.25368e-25
8.90394e-21
1.95513e-16
4.6862e-12
8.18134e-07
3.25453e-25
8.9058e-21
1.9555e-16
4.68705e-12
8.1821e-07
3.25992e-25
8.91745e-21
1.9578e-16
4.6921e-12
8.18642e-07
3.26212e-25
8.92226e-21
1.95876e-16
4.69421e-12
8.18822e-07
3.27376e-25
8.94718e-21
1.96366e-16
4.70497e-12
8.19731e-07
3.27753e-25
8.9554e-21
1.96531e-16
4.70864e-12
8.20039e-07
3.25955e-25
8.91793e-21
1.95916e-16
4.70482e-12
8.21073e-07
3.25218e-25
8.9029e-21
1.95671e-16
4.70257e-12
8.21305e-07
2.63599e-25
7.62798e-21
1.72884e-16
4.36289e-12
8.15215e-07
2.63592e-25
7.62735e-21
1.73974e-16
4.94705e-12
1.05518e-06
3.25207e-25
8.90181e-21
1.96735e-16
5.28179e-12
1.05954e-06
3.25946e-25
8.91686e-21
1.9698e-16
5.2836e-12
1.0592e-06
3.27744e-25
8.95432e-21
1.97588e-16
5.28521e-12
1.0576e-06
3.27367e-25
8.94609e-21
1.97421e-16
5.28118e-12
1.05722e-06
3.26203e-25
8.92118e-21
1.96928e-16
5.26924e-12
1.05603e-06
3.25982e-25
8.91637e-21
1.96831e-16
5.26692e-12
1.05581e-06
3.25443e-25
8.90473e-21
1.966e-16
5.26132e-12
1.05525e-06
3.25359e-25
8.90286e-21
1.96562e-16
5.26038e-12
1.05515e-06
3.25216e-25
8.89977e-21
1.965e-16
5.25883e-12
1.05499e-06
3.25216e-25
8.89977e-21
1.965e-16
5.25883e-12
1.05499e-06
3.25359e-25
8.90286e-21
1.96562e-16
5.26038e-12
1.05515e-06
3.25443e-25
8.90473e-21
1.966e-16
5.26132e-12
1.05525e-06
3.25982e-25
8.91637e-21
1.96831e-16
5.26692e-12
1.05581e-06
3.26203e-25
8.92118e-21
1.96928e-16
5.26924e-12
1.05603e-06
3.27367e-25
8.94609e-21
1.97421e-16
5.28118e-12
1.05722e-06
3.27744e-25
8.95432e-21
1.97588e-16
5.28521e-12
1.0576e-06
3.25946e-25
8.91686e-21
1.9698e-16
5.2836e-12
1.0592e-06
3.25207e-25
8.90181e-21
1.96735e-16
5.28179e-12
1.05954e-06
2.63592e-25
7.62735e-21
1.73974e-16
4.94705e-12
1.05518e-06
2.63584e-25
7.6274e-21
1.75423e-16
5.52957e-12
1.05264e-06
3.25196e-25
8.90132e-21
1.98151e-16
5.85934e-12
1.05703e-06
3.25937e-25
8.91641e-21
1.98394e-16
5.86074e-12
1.0567e-06
3.27735e-25
8.95384e-21
1.98993e-16
5.86014e-12
1.05512e-06
3.27357e-25
8.94562e-21
1.98825e-16
5.85576e-12
1.05474e-06
3.26193e-25
8.92071e-21
1.98327e-16
5.84266e-12
1.05357e-06
3.25973e-25
8.91589e-21
1.9823e-16
5.84013e-12
1.05334e-06
3.25434e-25
8.90425e-21
1.97996e-16
5.83398e-12
1.05279e-06
3.25349e-25
8.90239e-21
1.97958e-16
5.83296e-12
1.05269e-06
3.25207e-25
8.89929e-21
1.97896e-16
5.83124e-12
1.05253e-06
3.25207e-25
8.89929e-21
1.97896e-16
5.83124e-12
1.05253e-06
3.25349e-25
8.90239e-21
1.97958e-16
5.83296e-12
1.05269e-06
3.25434e-25
8.90425e-21
1.97996e-16
5.83398e-12
1.05279e-06
3.25973e-25
8.91589e-21
1.9823e-16
5.84013e-12
1.05334e-06
3.26193e-25
8.92071e-21
1.98327e-16
5.84266e-12
1.05357e-06
3.27357e-25
8.94562e-21
1.98825e-16
5.85576e-12
1.05474e-06
3.27735e-25
8.95384e-21
1.98993e-16
5.86014e-12
1.05512e-06
3.25937e-25
8.9164e-21
1.98394e-16
5.86074e-12
1.0567e-06
3.25196e-25
8.90132e-21
1.98151e-16
5.85934e-12
1.05703e-06
2.63584e-25
7.6274e-21
1.75423e-16
5.52957e-12
1.05264e-06
2.63578e-25
7.62835e-21
1.77231e-16
6.11044e-12
1.05017e-06
3.25185e-25
8.90167e-21
1.99916e-16
6.43523e-12
1.0546e-06
3.25928e-25
8.91679e-21
2.00159e-16
6.43621e-12
1.05427e-06
3.27726e-25
8.95418e-21
2.00745e-16
6.43344e-12
1.05272e-06
3.27349e-25
8.94596e-21
2.00576e-16
6.42871e-12
1.05234e-06
3.26184e-25
8.92105e-21
2.00073e-16
6.41444e-12
1.05118e-06
3.25964e-25
8.91624e-21
1.99974e-16
6.41171e-12
1.05096e-06
3.25425e-25
8.9046e-21
1.99738e-16
6.40502e-12
1.05041e-06
3.25341e-25
8.90273e-21
1.997e-16
6.40391e-12
1.05031e-06
3.25198e-25
8.89964e-21
1.99636e-16
6.40204e-12
1.05015e-06
3.25198e-25
8.89964e-21
1.99636e-16
6.40204e-12
1.05015e-06
3.25341e-25
8.90273e-21
1.997e-16
6.40391e-12
1.05031e-06
3.25425e-25
8.9046e-21
1.99738e-16
6.40502e-12
1.05041e-06
3.25964e-25
8.91624e-21
1.99974e-16
6.41171e-12
1.05096e-06
3.26184e-25
8.92105e-21
2.00073e-16
6.41444e-12
1.05118e-06
3.27349e-25
8.94596e-21
2.00576e-16
6.42871e-12
1.05234e-06
3.27726e-25
8.95418e-21
2.00745e-16
6.43344e-12
1.05272e-06
3.25928e-25
8.91679e-21
2.00159e-16
6.43621e-12
1.05427e-06
3.25185e-25
8.90167e-21
1.99916e-16
6.43523e-12
1.0546e-06
2.63578e-25
7.62835e-21
1.77231e-16
6.11044e-12
1.05017e-06
2.63573e-25
7.63044e-21
1.79395e-16
6.68958e-12
1.04778e-06
3.25174e-25
8.90307e-21
2.02032e-16
7.00938e-12
1.05224e-06
3.2592e-25
8.91823e-21
2.02272e-16
7.00995e-12
1.05191e-06
3.27718e-25
8.95557e-21
2.02845e-16
7.00502e-12
1.05038e-06
3.27341e-25
8.94735e-21
2.02673e-16
6.99994e-12
1.05e-06
3.26177e-25
8.92244e-21
2.02163e-16
6.98452e-12
1.04886e-06
3.25956e-25
8.91762e-21
2.02063e-16
6.98159e-12
1.04864e-06
3.25417e-25
8.90598e-21
2.01824e-16
6.97437e-12
1.04809e-06
3.25333e-25
8.90412e-21
2.01785e-16
6.97317e-12
1.048e-06
3.2519e-25
8.90102e-21
2.01721e-16
6.97114e-12
1.04784e-06
3.2519e-25
8.90102e-21
2.01721e-16
6.97114e-12
1.04784e-06
3.25333e-25
8.90412e-21
2.01785e-16
6.97317e-12
1.048e-06
3.25417e-25
8.90598e-21
2.01824e-16
6.97437e-12
1.04809e-06
3.25956e-25
8.91762e-21
2.02063e-16
6.98159e-12
1.04864e-06
3.26177e-25
8.92244e-21
2.02163e-16
6.98452e-12
1.04886e-06
3.27341e-25
8.94735e-21
2.02673e-16
6.99994e-12
1.05e-06
3.27718e-25
8.95557e-21
2.02845e-16
7.00502e-12
1.05038e-06
3.2592e-25
8.91823e-21
2.02272e-16
7.00995e-12
1.05191e-06
3.25174e-25
8.90307e-21
2.02031e-16
7.00938e-12
1.05224e-06
2.63573e-25
7.63044e-21
1.79395e-16
6.68958e-12
1.04778e-06
2.6357e-25
7.63389e-21
1.81915e-16
7.26692e-12
1.04546e-06
3.25166e-25
8.90575e-21
2.04495e-16
7.58171e-12
1.04994e-06
3.25914e-25
8.92094e-21
2.04733e-16
7.58187e-12
1.04962e-06
3.27712e-25
8.95823e-21
2.05289e-16
7.5748e-12
1.04811e-06
3.27335e-25
8.95001e-21
2.05115e-16
7.56938e-12
1.04774e-06
3.26171e-25
8.92508e-21
2.04597e-16
7.55282e-12
1.0466e-06
3.2595e-25
8.92027e-21
2.04496e-16
7.54969e-12
1.04638e-06
3.25412e-25
8.90861e-21
2.04253e-16
7.54193e-12
1.04585e-06
3.25327e-25
8.90675e-21
2.04214e-16
7.54064e-12
1.04575e-06
3.25185e-25
8.90365e-21
2.04148e-16
7.53847e-12
1.0456e-06
3.25185e-25
8.90365e-21
2.04148e-16
7.53847e-12
1.0456e-06
3.25327e-25
8.90675e-21
2.04214e-16
7.54064e-12
1.04575e-06
3.25412e-25
8.90861e-21
2.04253e-16
7.54193e-12
1.04585e-06
3.2595e-25
8.92027e-21
2.04496e-16
7.54969e-12
1.04638e-06
3.26171e-25
8.92508e-21
2.04597e-16
7.55282e-12
1.0466e-06
3.27335e-25
8.95001e-21
2.05115e-16
7.56938e-12
1.04774e-06
3.27712e-25
8.95823e-21
2.05289e-16
7.5748e-12
1.04811e-06
3.25914e-25
8.92094e-21
2.04733e-16
7.58187e-12
1.04962e-06
3.25166e-25
8.90575e-21
2.04495e-16
7.58171e-12
1.04994e-06
2.6357e-25
7.63389e-21
1.81915e-16
7.26692e-12
1.04546e-06
2.63571e-25
7.63893e-21
1.8479e-16
7.84237e-12
1.0432e-06
3.25161e-25
8.90993e-21
2.07304e-16
8.15212e-12
1.04771e-06
3.25912e-25
8.92516e-21
2.0754e-16
8.15188e-12
1.04739e-06
3.27709e-25
8.96237e-21
2.08078e-16
8.1427e-12
1.0459e-06
3.27332e-25
8.95414e-21
2.07901e-16
8.13694e-12
1.04553e-06
3.26168e-25
8.9292e-21
2.07374e-16
8.11924e-12
1.04441e-06
3.25948e-25
8.92438e-21
2.07272e-16
8.11592e-12
1.04419e-06
3.25409e-25
8.91272e-21
2.07025e-16
8.10764e-12
1.04366e-06
3.25324e-25
8.91086e-21
2.06984e-16
8.10626e-12
1.04357e-06
3.25182e-25
8.90775e-21
2.06918e-16
8.10393e-12
1.04341e-06
3.25182e-25
8.90775e-21
2.06918e-16
8.10393e-12
1.04341e-06
3.25324e-25
8.91086e-21
2.06984e-16
8.10626e-12
1.04357e-06
3.25409e-25
8.91272e-21
2.07025e-16
8.10764e-12
1.04366e-06
3.25948e-25
8.92438e-21
2.07272e-16
8.11592e-12
1.04419e-06
3.26168e-25
8.9292e-21
2.07374e-16
8.11924e-12
1.04441e-06
3.27332e-25
8.95414e-21
2.07901e-16
8.13694e-12
1.04553e-06
3.27709e-25
8.96237e-21
2.08078e-16
8.1427e-12
1.0459e-06
3.25912e-25
8.92516e-21
2.0754e-16
8.15188e-12
1.04739e-06
3.25161e-25
8.90993e-21
2.07304e-16
8.15212e-12
1.04771e-06
2.63571e-25
7.63893e-21
1.8479e-16
7.84237e-12
1.0432e-06
2.63577e-25
7.64577e-21
1.88018e-16
8.41584e-12
1.04099e-06
3.25159e-25
8.91583e-21
2.1046e-16
8.72053e-12
1.04554e-06
3.25913e-25
8.93109e-21
2.10692e-16
8.7199e-12
1.04522e-06
3.2771e-25
8.96821e-21
2.11209e-16
8.70863e-12
1.04375e-06
3.27333e-25
8.95998e-21
2.1103e-16
8.70253e-12
1.04338e-06
3.26169e-25
8.93501e-21
2.10493e-16
8.68372e-12
1.04227e-06
3.25949e-25
8.93018e-21
2.10388e-16
8.6802e-12
1.04205e-06
3.2541e-25
8.91851e-21
2.10137e-16
8.67139e-12
1.04152e-06
3.25325e-25
8.91665e-21
2.10095e-16
8.66994e-12
1.04143e-06
3.25183e-25
8.91354e-21
2.10027e-16
8.66746e-12
1.04128e-06
3.25183e-25
8.91354e-21
2.10027e-16
8.66746e-12
1.04128e-06
3.25325e-25
8.91665e-21
2.10095e-16
8.66994e-12
1.04143e-06
3.2541e-25
8.91851e-21
2.10136e-16
8.67139e-12
1.04152e-06
3.25949e-25
8.93018e-21
2.10388e-16
8.6802e-12
1.04205e-06
3.26169e-25
8.93501e-21
2.10493e-16
8.68372e-12
1.04227e-06
3.27333e-25
8.95998e-21
2.1103e-16
8.70253e-12
1.04338e-06
3.2771e-25
8.96821e-21
2.11209e-16
8.70863e-12
1.04375e-06
3.25913e-25
8.93109e-21
2.10692e-16
8.7199e-12
1.04522e-06
3.25159e-25
8.91583e-21
2.1046e-16
8.72053e-12
1.04554e-06
2.63577e-25
7.64577e-21
1.88018e-16
8.41584e-12
1.04099e-06
2.63588e-25
7.65465e-21
1.91597e-16
8.98723e-12
1.03885e-06
3.25163e-25
8.92366e-21
2.13959e-16
9.28686e-12
1.04341e-06
3.2592e-25
8.93896e-21
2.14188e-16
9.28584e-12
1.0431e-06
3.27716e-25
8.97596e-21
2.14682e-16
9.27251e-12
1.04165e-06
3.27339e-25
8.96772e-21
2.14499e-16
9.26608e-12
1.04128e-06
3.26175e-25
8.94272e-21
2.13951e-16
9.24615e-12
1.04018e-06
3.25955e-25
8.93789e-21
2.13845e-16
9.24244e-12
1.03997e-06
3.25416e-25
8.9262e-21
2.13588e-16
9.23312e-12
1.03944e-06
3.25331e-25
8.92433e-21
2.13546e-16
9.23158e-12
1.03935e-06
3.25189e-25
8.92122e-21
2.13476e-16
9.22895e-12
1.0392e-06
3.25189e-25
8.92122e-21
2.13476e-16
9.22895e-12
1.0392e-06
3.25331e-25
8.92433e-21
2.13546e-16
9.23158e-12
1.03935e-06
3.25416e-25
8.9262e-21
2.13588e-16
9.23312e-12
1.03944e-06
3.25955e-25
8.93789e-21
2.13845e-16
9.24244e-12
1.03997e-06
3.26175e-25
8.94272e-21
2.13951e-16
9.24615e-12
1.04018e-06
3.27339e-25
8.96772e-21
2.14499e-16
9.26608e-12
1.04128e-06
3.27716e-25
8.97596e-21
2.14682e-16
9.27251e-12
1.04165e-06
3.2592e-25
8.93896e-21
2.14188e-16
9.28584e-12
1.0431e-06
3.25163e-25
8.92366e-21
2.13958e-16
9.28686e-12
1.04341e-06
2.63588e-25
7.65465e-21
1.91597e-16
8.98723e-12
1.03885e-06
2.63608e-25
7.66579e-21
1.95527e-16
9.55647e-12
1.03675e-06
3.25173e-25
8.93364e-21
2.178e-16
9.851e-12
1.04134e-06
3.25933e-25
8.94898e-21
2.18025e-16
9.8496e-12
1.04103e-06
3.27729e-25
8.98584e-21
2.18494e-16
9.83423e-12
1.03959e-06
3.27352e-25
8.97759e-21
2.18308e-16
9.82747e-12
1.03923e-06
3.26188e-25
8.95254e-21
2.17747e-16
9.80645e-12
1.03814e-06
3.25968e-25
8.94771e-21
2.17639e-16
9.80255e-12
1.03793e-06
3.25429e-25
8.936e-21
2.17376e-16
9.79272e-12
1.03741e-06
3.25344e-25
8.93413e-21
2.17333e-16
9.7911e-12
1.03732e-06
3.25202e-25
8.93101e-21
2.17262e-16
9.78832e-12
1.03717e-06
3.25202e-25
8.93101e-21
2.17262e-16
9.78832e-12
1.03717e-06
3.25344e-25
8.93413e-21
2.17333e-16
9.7911e-12
1.03732e-06
3.25429e-25
8.936e-21
2.17376e-16
9.79272e-12
1.03741e-06
3.25968e-25
8.94771e-21
2.17639e-16
9.80255e-12
1.03793e-06
3.26188e-25
8.95254e-21
2.17747e-16
9.80645e-12
1.03814e-06
3.27352e-25
8.97759e-21
2.18308e-16
9.82747e-12
1.03923e-06
3.27729e-25
8.98584e-21
2.18494e-16
9.83423e-12
1.03959e-06
3.25933e-25
8.94897e-21
2.18025e-16
9.8496e-12
1.04103e-06
3.25173e-25
8.93364e-21
2.178e-16
9.851e-12
1.04134e-06
2.63608e-25
7.66579e-21
1.95527e-16
9.55647e-12
1.03675e-06
2.63636e-25
7.6794e-21
1.99805e-16
1.01234e-11
1.03469e-06
3.25192e-25
8.94599e-21
2.21981e-16
1.04129e-11
1.0393e-06
3.25955e-25
8.96135e-21
2.22203e-16
1.04111e-11
1.039e-06
3.27751e-25
8.99806e-21
2.22645e-16
1.03937e-11
1.03758e-06
3.27374e-25
8.9898e-21
2.22455e-16
1.03866e-11
1.03722e-06
3.26209e-25
8.9647e-21
2.2188e-16
1.03645e-11
1.03613e-06
3.25989e-25
8.95985e-21
2.2177e-16
1.03604e-11
1.03592e-06
3.2545e-25
8.94812e-21
2.21501e-16
1.03501e-11
1.03541e-06
3.25365e-25
8.94625e-21
2.21457e-16
1.03484e-11
1.03532e-06
3.25223e-25
8.94312e-21
2.21384e-16
1.03455e-11
1.03517e-06
3.25223e-25
8.94312e-21
2.21384e-16
1.03455e-11
1.03517e-06
3.25365e-25
8.94625e-21
2.21457e-16
1.03484e-11
1.03532e-06
3.2545e-25
8.94812e-21
2.21501e-16
1.03501e-11
1.03541e-06
3.25989e-25
8.95985e-21
2.2177e-16
1.03604e-11
1.03592e-06
3.26209e-25
8.9647e-21
2.2188e-16
1.03645e-11
1.03613e-06
3.27374e-25
8.9898e-21
2.22455e-16
1.03866e-11
1.03722e-06
3.27751e-25
8.99806e-21
2.22645e-16
1.03937e-11
1.03758e-06
3.25955e-25
8.96135e-21
2.22203e-16
1.04111e-11
1.039e-06
3.25192e-25
8.94599e-21
2.21981e-16
1.04129e-11
1.0393e-06
2.63636e-25
7.6794e-21
1.99805e-16
1.01234e-11
1.03469e-06
2.63675e-25
7.69571e-21
2.0443e-16
1.0688e-11
1.03263e-06
3.2522e-25
8.96091e-21
2.26502e-16
1.09723e-11
1.03726e-06
3.25987e-25
8.97631e-21
2.26719e-16
1.09702e-11
1.03696e-06
3.27782e-25
9.01284e-21
2.27132e-16
1.09508e-11
1.03556e-06
3.27405e-25
9.00455e-21
2.26937e-16
1.09434e-11
1.03521e-06
3.2624e-25
8.97939e-21
2.26348e-16
1.09202e-11
1.03413e-06
3.2602e-25
8.97453e-21
2.26235e-16
1.0916e-11
1.03392e-06
3.25481e-25
8.96277e-21
2.2596e-16
1.09051e-11
1.03341e-06
3.25396e-25
8.96089e-21
2.25915e-16
1.09033e-11
1.03332e-06
3.25254e-25
8.95776e-21
2.2584e-16
1.09003e-11
1.03318e-06
3.25254e-25
8.95776e-21
2.2584e-16
1.09003e-11
1.03318e-06
3.25396e-25
8.96089e-21
2.25915e-16
1.09033e-11
1.03332e-06
3.25481e-25
8.96277e-21
2.2596e-16
1.09051e-11
1.03341e-06
3.2602e-25
8.97453e-21
2.26235e-16
1.0916e-11
1.03392e-06
3.2624e-25
8.97939e-21
2.26348e-16
1.09202e-11
1.03413e-06
3.27405e-25
9.00455e-21
2.26937e-16
1.09434e-11
1.03521e-06
3.27782e-25
9.01283e-21
2.27132e-16
1.09508e-11
1.03556e-06
3.25987e-25
8.97631e-21
2.26719e-16
1.09702e-11
1.03696e-06
3.2522e-25
8.96091e-21
2.26502e-16
1.09723e-11
1.03726e-06
2.63675e-25
7.69571e-21
2.0443e-16
1.0688e-11
1.03263e-06
0.00124481
0.000316447
1.41771e-05
1.36112e-07
2.09415e-10
4.868e-13
4.54146e-13
4.56807e-13
4.57386e-13
4.57494e-13
4.57534e-13
4.57784e-13
4.59022e-13
4.60492e-13
4.72439e-13
4.82483e-13
5.87046e-13
6.42947e-13
2.05382e-12
2.39783e-12
0.00134048
0.000342759
1.56995e-05
1.55834e-07
2.529e-10
5.03879e-13
4.54059e-13
4.56783e-13
4.57376e-13
4.57486e-13
4.57517e-13
4.5772e-13
4.58986e-13
4.60481e-13
4.72639e-13
4.82806e-13
5.88776e-13
6.45054e-13
2.07255e-12
2.42073e-12
0.00134077
0.000342724
1.5686e-05
1.5563e-07
2.52419e-10
5.03701e-13
4.54057e-13
4.56783e-13
4.57376e-13
4.57486e-13
4.57518e-13
4.57724e-13
4.58991e-13
4.60487e-13
4.72649e-13
4.82818e-13
5.8881e-13
6.45089e-13
2.07273e-12
2.42092e-12
0.00134177
0.000342205
1.55821e-05
1.54035e-07
2.48689e-10
5.02349e-13
4.54054e-13
4.56783e-13
4.57378e-13
4.57488e-13
4.57521e-13
4.57742e-13
4.59012e-13
4.6051e-13
4.72687e-13
4.82863e-13
5.88924e-13
6.45211e-13
2.07333e-12
2.42144e-12
0.00134058
0.000341827
1.55549e-05
1.53675e-07
2.47855e-10
5.02012e-13
4.54054e-13
4.56783e-13
4.57377e-13
4.57488e-13
4.57521e-13
4.57743e-13
4.59012e-13
4.60511e-13
4.72688e-13
4.82864e-13
5.88928e-13
6.45215e-13
2.07334e-12
2.42145e-12
0.00133742
0.000340653
1.5464e-05
1.52459e-07
2.45068e-10
5.00906e-13
4.54055e-13
4.56783e-13
4.57377e-13
4.57488e-13
4.57521e-13
4.57744e-13
4.59013e-13
4.60512e-13
4.72691e-13
4.82867e-13
5.88934e-13
6.4522e-13
2.07337e-12
2.42146e-12
0.00133674
0.00034044
1.54492e-05
1.52265e-07
2.4462e-10
5.00724e-13
4.54055e-13
4.56783e-13
4.57378e-13
4.57488e-13
4.57521e-13
4.57744e-13
4.59014e-13
4.60512e-13
4.72691e-13
4.82867e-13
5.88934e-13
6.45221e-13
2.07337e-12
2.42147e-12
0.00133525
0.000339897
1.54082e-05
1.51723e-07
2.43382e-10
5.00228e-13
4.54055e-13
4.56783e-13
4.57378e-13
4.57488e-13
4.57521e-13
4.57744e-13
4.59014e-13
4.60512e-13
4.72691e-13
4.82867e-13
5.88934e-13
6.45221e-13
2.07337e-12
2.42147e-12
0.00133497
0.000339811
1.54021e-05
1.51645e-07
2.43201e-10
5.00154e-13
4.54055e-13
4.56783e-13
4.57378e-13
4.57488e-13
4.57521e-13
4.57744e-13
4.59014e-13
4.60512e-13
4.72691e-13
4.82867e-13
5.88934e-13
6.45221e-13
2.07337e-12
2.42147e-12
0.00133455
0.000339659
1.53907e-05
1.51494e-07
2.42856e-10
5.00016e-13
4.54055e-13
4.56783e-13
4.57378e-13
4.57488e-13
4.57521e-13
4.57744e-13
4.59014e-13
4.60512e-13
4.72691e-13
4.82867e-13
5.88934e-13
6.45221e-13
2.07337e-12
2.42147e-12
0.00133455
0.000339659
1.53907e-05
1.51494e-07
2.42856e-10
5.00016e-13
4.54055e-13
4.56783e-13
4.57378e-13
4.57488e-13
4.57521e-13
4.57744e-13
4.59014e-13
4.60512e-13
4.72691e-13
4.82867e-13
5.88934e-13
6.45221e-13
2.07337e-12
2.42147e-12
0.00133497
0.000339811
1.54021e-05
1.51645e-07
2.43201e-10
5.00154e-13
4.54055e-13
4.56783e-13
4.57378e-13
4.57488e-13
4.57521e-13
4.57744e-13
4.59014e-13
4.60512e-13
4.72691e-13
4.82867e-13
5.88934e-13
6.45221e-13
2.07337e-12
2.42147e-12
0.00133525
0.000339897
1.54082e-05
1.51723e-07
2.43382e-10
5.00228e-13
4.54055e-13
4.56783e-13
4.57378e-13
4.57488e-13
4.57521e-13
4.57744e-13
4.59014e-13
4.60512e-13
4.72691e-13
4.82867e-13
5.88934e-13
6.45221e-13
2.07337e-12
2.42147e-12
0.00133674
0.00034044
1.54492e-05
1.52265e-07
2.4462e-10
5.00724e-13
4.54055e-13
4.56783e-13
4.57378e-13
4.57488e-13
4.57521e-13
4.57744e-13
4.59014e-13
4.60512e-13
4.72691e-13
4.82867e-13
5.88934e-13
6.45221e-13
2.07337e-12
2.42147e-12
0.00133742
0.000340653
1.5464e-05
1.52459e-07
2.45068e-10
5.00906e-13
4.54055e-13
4.56783e-13
4.57377e-13
4.57488e-13
4.57521e-13
4.57744e-13
4.59013e-13
4.60512e-13
4.72691e-13
4.82867e-13
5.88934e-13
6.4522e-13
2.07337e-12
2.42146e-12
0.00134058
0.000341827
1.55549e-05
1.53675e-07
2.47855e-10
5.02012e-13
4.54054e-13
4.56783e-13
4.57377e-13
4.57488e-13
4.57521e-13
4.57743e-13
4.59012e-13
4.60511e-13
4.72688e-13
4.82864e-13
5.88928e-13
6.45215e-13
2.07334e-12
2.42145e-12
0.00134177
0.000342205
1.55821e-05
1.54035e-07
2.48689e-10
5.02349e-13
4.54054e-13
4.56783e-13
4.57378e-13
4.57488e-13
4.57521e-13
4.57742e-13
4.59012e-13
4.6051e-13
4.72687e-13
4.82863e-13
5.88924e-13
6.45211e-13
2.07333e-12
2.42144e-12
0.00134077
0.000342724
1.5686e-05
1.5563e-07
2.52419e-10
5.03701e-13
4.54057e-13
4.56783e-13
4.57376e-13
4.57486e-13
4.57518e-13
4.57724e-13
4.58991e-13
4.60487e-13
4.72649e-13
4.82818e-13
5.8881e-13
6.45089e-13
2.07273e-12
2.42092e-12
0.00134048
0.000342759
1.56995e-05
1.55834e-07
2.529e-10
5.03879e-13
4.54059e-13
4.56783e-13
4.57376e-13
4.57486e-13
4.57517e-13
4.5772e-13
4.58986e-13
4.60481e-13
4.72639e-13
4.82806e-13
5.88776e-13
6.45054e-13
2.07255e-12
2.42073e-12
0.00124481
0.000316447
1.41771e-05
1.36112e-07
2.09415e-10
4.868e-13
4.54146e-13
4.56807e-13
4.57386e-13
4.57494e-13
4.57534e-13
4.57784e-13
4.59022e-13
4.60492e-13
4.72439e-13
4.82483e-13
5.87046e-13
6.42947e-13
2.05382e-12
2.39783e-12
0.0161588
0.00543359
0.00035314
4.40513e-06
8.82235e-09
1.96612e-11
1.72018e-11
1.73145e-11
1.73391e-11
1.73437e-11
1.73454e-11
1.73551e-11
1.74029e-11
1.74591e-11
1.79158e-11
1.82969e-11
2.2264e-11
2.43635e-11
7.72455e-11
8.98655e-11
0.017066
0.00578622
0.000384334
4.93843e-06
1.03067e-08
2.04068e-11
1.71981e-11
1.73134e-11
1.73387e-11
1.73434e-11
1.73448e-11
1.73527e-11
1.74015e-11
1.74588e-11
1.79236e-11
1.83094e-11
2.23303e-11
2.44438e-11
7.79497e-11
9.07234e-11
0.0170664
0.00578482
0.000383931
4.93086e-06
1.02851e-08
2.03969e-11
1.71981e-11
1.73134e-11
1.73387e-11
1.73434e-11
1.73448e-11
1.73528e-11
1.74017e-11
1.7459e-11
1.7924e-11
1.83099e-11
2.23316e-11
2.44452e-11
7.79567e-11
9.07304e-11
0.0170722
0.00577521
0.000381248
4.87786e-06
1.01303e-08
2.03244e-11
1.71979e-11
1.73135e-11
1.73387e-11
1.73435e-11