/*--------------------------------*- C++ -*----------------------------------*\
  =========                 |
  \\      /  F ield         | OpenFOAM: The Open Source CFD Toolbox
   \\    /   O peration     | Website:  https://openfoam.org
    \\  /    A nd           | Version:  8
     \\/     M anipulation  |
\*---------------------------------------------------------------------------*/
FoamFile
{
    version     2.0;
    format      ascii;
    class       volScalarField;
    location    "3.5";
    object      p;
}
// * * * * * * * * * * * * * * * * * * * * * * * * * * * * * * * * * * * * * //

dimensions      [0 2 -2 0 0 0 0];

internalField   nonuniform List<scalar> 
180000
(
0.000899214
0.00083837
0.000876562
0.000746792
0.000815457
0.000884684
0.00082407
0.00086198
0.000733532
0.000801056
0.000883896
0.000823317
0.00086119
0.000732872
0.000800312
0.000879646
0.00081923
0.000856924
0.000729266
0.000796309
0.000879114
0.000818723
0.000856388
0.000728822
0.000795805
0.00087719
0.000816886
0.000854452
0.000727208
0.000793992
0.000876897
0.000816607
0.000854155
0.000726963
0.000793714
0.00087603
0.00081578
0.000853281
0.000726236
0.000792894
0.000875906
0.000815662
0.000853155
0.000726132
0.000792775
0.000875657
0.000815424
0.000852904
0.000725922
0.000792539
0.000875657
0.000815424
0.000852904
0.000725922
0.000792539
0.000875906
0.000815662
0.000853155
0.000726132
0.000792775
0.00087603
0.00081578
0.000853281
0.000726236
0.000792894
0.000876897
0.000816607
0.000854155
0.000726963
0.000793714
0.00087719
0.000816886
0.000854452
0.000727208
0.000793992
0.000879114
0.000818723
0.000856388
0.000728822
0.000795805
0.000879646
0.00081923
0.000856924
0.000729266
0.000796309
0.000883896
0.000823317
0.00086119
0.000732872
0.000800312
0.000884684
0.00082407
0.00086198
0.000733532
0.000801056
0.000899214
0.00083837
0.000876562
0.000746792
0.000815457
0.000734185
0.000705906
0.00072459
0.000655564
0.000694745
0.000727822
0.000698752
0.000717864
0.000647757
0.000687204
0.000727469
0.000698368
0.000717492
0.000647362
0.000686807
0.000725525
0.000696243
0.00071544
0.000645167
0.000684631
0.000725282
0.00069598
0.000715183
0.000644897
0.000684358
0.000724394
0.000695018
0.000714244
0.00064391
0.000683366
0.00072426
0.000694872
0.000714101
0.00064376
0.000683214
0.000723858
0.000694438
0.000713675
0.000643314
0.000682764
0.000723801
0.000694376
0.000713614
0.000643251
0.000682699
0.000723685
0.000694251
0.000713491
0.000643122
0.000682569
0.000723685
0.000694251
0.000713491
0.000643122
0.000682569
0.000723801
0.000694376
0.000713614
0.000643251
0.000682699
0.000723858
0.000694438
0.000713675
0.000643314
0.000682764
0.00072426
0.000694872
0.000714101
0.00064376
0.000683214
0.000724394
0.000695018
0.000714244
0.00064391
0.000683366
0.000725282
0.00069598
0.000715183
0.000644897
0.000684358
0.000725525
0.000696243
0.00071544
0.000645167
0.000684631
0.000727469
0.000698368
0.000717492
0.000647362
0.000686807
0.000727822
0.000698752
0.000717864
0.000647757
0.000687204
0.000734185
0.000705906
0.00072459
0.000655564
0.000694745
0.000526931
0.000504494
0.000519771
0.00046586
0.000498799
0.000521825
0.000499027
0.000514484
0.000460189
0.000493102
0.000521542
0.000498733
0.000514192
0.0004599
0.000492801
0.000519952
0.000497073
0.000512546
0.000458262
0.000491114
0.000519755
0.00049687
0.000512342
0.000458063
0.000490905
0.000519031
0.000496119
0.00051159
0.000457326
0.000490136
0.000518922
0.000496007
0.000511476
0.000457215
0.00049002
0.000518594
0.000495668
0.000511135
0.000456883
0.000489672
0.000518548
0.00049562
0.000511087
0.000456836
0.000489622
0.000518454
0.000495523
0.000510989
0.00045674
0.000489521
0.000518454
0.000495523
0.000510989
0.00045674
0.000489521
0.000518548
0.00049562
0.000511087
0.000456836
0.000489622
0.000518594
0.000495668
0.000511135
0.000456883
0.000489672
0.000518922
0.000496007
0.000511476
0.000457215
0.00049002
0.000519031
0.000496119
0.00051159
0.000457326
0.000490136
0.000519755
0.00049687
0.000512342
0.000458063
0.000490905
0.000519952
0.000497073
0.000512546
0.000458262
0.000491114
0.000521542
0.000498733
0.000514192
0.0004599
0.000492801
0.000521825
0.000499027
0.000514484
0.000460189
0.000493102
0.000526931
0.000504494
0.000519771
0.00046586
0.000498799
0.000492274
0.000466087
0.000484021
0.000423441
0.000462662
0.000486195
0.000459931
0.000477862
0.00041749
0.000456376
0.000485857
0.000459599
0.000477521
0.000417185
0.000456041
0.000483959
0.000457718
0.000475596
0.000415444
0.000454158
0.000483726
0.000457488
0.000475359
0.000415233
0.000453925
0.000482864
0.00045664
0.000474482
0.000414452
0.00045307
0.000482734
0.000456513
0.00047435
0.000414335
0.00045294
0.000482345
0.00045613
0.000473953
0.000413982
0.000452553
0.00048229
0.000456076
0.000473897
0.000413933
0.000452497
0.000482178
0.000455966
0.000473783
0.000413831
0.000452386
0.000482178
0.000455966
0.000473783
0.000413831
0.000452386
0.00048229
0.000456076
0.000473897
0.000413933
0.000452497
0.000482345
0.00045613
0.000473953
0.000413982
0.000452553
0.000482734
0.000456513
0.00047435
0.000414335
0.00045294
0.000482864
0.00045664
0.000474482
0.000414452
0.00045307
0.000483726
0.000457488
0.000475359
0.000415233
0.000453925
0.000483959
0.000457718
0.000475596
0.000415444
0.000454158
0.000485857
0.000459599
0.000477521
0.000417185
0.000456041
0.000486195
0.000459931
0.000477862
0.00041749
0.000456376
0.000492274
0.000466087
0.000484021
0.000423441
0.000462662
0.000515201
0.000487517
0.000506824
0.000442092
0.000486902
0.000508797
0.000481029
0.000500335
0.00043583
0.000480299
0.000508437
0.000480675
0.000499971
0.000435506
0.000479941
0.000506407
0.000478662
0.000497912
0.000433645
0.000477925
0.000506157
0.000478417
0.000497658
0.00043342
0.000477676
0.000505235
0.000477509
0.000496719
0.000432584
0.00047676
0.000505096
0.000477373
0.000496578
0.000432459
0.000476621
0.00050468
0.000476963
0.000496153
0.000432082
0.000476206
0.000504621
0.000476906
0.000496093
0.000432029
0.000476147
0.000504501
0.000476788
0.000495971
0.00043192
0.000476027
0.000504501
0.000476788
0.000495971
0.00043192
0.000476027
0.000504621
0.000476906
0.000496093
0.000432029
0.000476147
0.00050468
0.000476963
0.000496153
0.000432082
0.000476206
0.000505096
0.000477373
0.000496578
0.000432459
0.000476621
0.000505235
0.000477509
0.000496719
0.000432584
0.00047676
0.000506157
0.000478417
0.000497658
0.00043342
0.000477676
0.000506407
0.000478662
0.000497912
0.000433645
0.000477925
0.000508437
0.000480675
0.000499971
0.000435506
0.000479941
0.000508797
0.000481029
0.000500335
0.00043583
0.000480299
0.000515201
0.000487517
0.000506824
0.000442092
0.000486902
0.000527996
0.000500879
0.000520277
0.000455607
0.000504038
0.000521774
0.00049453
0.000513957
0.000449418
0.000497577
0.00052142
0.000494179
0.000513598
0.000449094
0.000497221
0.000519406
0.000492169
0.000511551
0.000447217
0.000495198
0.00051916
0.000491925
0.000511299
0.000446991
0.000494949
0.000518243
0.000491017
0.000510365
0.000446147
0.000494028
0.000518106
0.000490882
0.000510225
0.000446021
0.000493889
0.000517692
0.000490472
0.000509802
0.00044564
0.000493472
0.000517634
0.000490415
0.000509742
0.000445586
0.000493413
0.000517515
0.000490297
0.00050962
0.000445477
0.000493293
0.000517515
0.000490297
0.00050962
0.000445477
0.000493293
0.000517634
0.000490415
0.000509742
0.000445586
0.000493413
0.000517692
0.000490472
0.000509802
0.00044564
0.000493472
0.000518106
0.000490882
0.000510225
0.000446021
0.000493889
0.000518243
0.000491017
0.000510365
0.000446147
0.000494028
0.00051916
0.000491925
0.000511299
0.000446991
0.000494949
0.000519406
0.000492169
0.000511551
0.000447217
0.000495198
0.00052142
0.000494179
0.000513598
0.000449094
0.000497221
0.000521774
0.00049453
0.000513957
0.000449418
0.000497577
0.000527996
0.000500879
0.000520277
0.000455607
0.000504038
0.000527931
0.000501562
0.000520915
0.000457113
0.000508829
0.000521921
0.000495419
0.000514809
0.000451105
0.000502584
0.000521576
0.000495076
0.000514459
0.000450787
0.000502235
0.000519592
0.000493091
0.00051244
0.000448926
0.00050023
0.00051935
0.000492852
0.000512193
0.000448703
0.000499984
0.000518445
0.000491954
0.000511271
0.000447865
0.00049907
0.000518311
0.00049182
0.000511133
0.000447741
0.000498933
0.000517902
0.000491415
0.000510715
0.000447363
0.000498519
0.000517845
0.000491359
0.000510656
0.00044731
0.00049846
0.000517727
0.000491242
0.000510536
0.000447201
0.000498341
0.000517727
0.000491242
0.000510536
0.000447201
0.000498341
0.000517845
0.000491359
0.000510656
0.00044731
0.00049846
0.000517902
0.000491415
0.000510715
0.000447363
0.000498519
0.000518311
0.00049182
0.000511133
0.000447741
0.000498933
0.000518445
0.000491954
0.000511271
0.000447865
0.00049907
0.00051935
0.000492852
0.000512193
0.000448703
0.000499984
0.000519592
0.000493091
0.00051244
0.000448926
0.00050023
0.000521576
0.000495076
0.000514459
0.000450787
0.000502235
0.000521921
0.000495419
0.000514809
0.000451105
0.000502584
0.000527931
0.000501562
0.000520915
0.000457113
0.000508829
0.000525297
0.000499346
0.000518843
0.00045546
0.000510508
0.000519415
0.000493341
0.000512872
0.000449596
0.000504414
0.000519074
0.000493003
0.000512526
0.000449282
0.000504069
0.000517096
0.000491027
0.000510516
0.000447429
0.000502067
0.000516856
0.00049079
0.000510271
0.000447207
0.000501822
0.000515953
0.000489894
0.000509351
0.000446372
0.000500908
0.00051582
0.000489762
0.000509214
0.000446249
0.000500771
0.000515412
0.000489358
0.000508797
0.000445871
0.000500357
0.000515355
0.000489302
0.000508739
0.000445819
0.000500299
0.000515238
0.000489186
0.000508619
0.00044571
0.000500179
0.000515238
0.000489186
0.000508619
0.00044571
0.000500179
0.000515355
0.000489302
0.000508739
0.000445819
0.000500299
0.000515412
0.000489358
0.000508797
0.000445871
0.000500357
0.00051582
0.000489762
0.000509214
0.000446249
0.000500771
0.000515953
0.000489894
0.000509351
0.000446372
0.000500908
0.000516856
0.00049079
0.000510271
0.000447207
0.000501822
0.000517096
0.000491027
0.000510516
0.000447429
0.000502067
0.000519074
0.000493003
0.000512526
0.000449282
0.000504069
0.000519415
0.000493341
0.000512872
0.000449596
0.000504414
0.000525297
0.000499346
0.000518843
0.00045546
0.000510508
0.000524044
0.000498365
0.000518087
0.000454895
0.000512921
0.000518256
0.000492464
0.000512216
0.00044914
0.000506937
0.000517917
0.000492129
0.000511873
0.000448828
0.000506593
0.000515937
0.000490153
0.000509862
0.000446975
0.000504585
0.000515697
0.000489916
0.000509617
0.000446755
0.00050434
0.000514792
0.000489019
0.000508695
0.000445918
0.000503422
0.000514659
0.000488888
0.000508558
0.000445795
0.000503285
0.00051425
0.000488483
0.000508141
0.000445417
0.00050287
0.000514193
0.000488427
0.000508082
0.000445364
0.000502811
0.000514075
0.000488311
0.000507962
0.000445256
0.000502691
0.000514075
0.000488311
0.000507962
0.000445256
0.000502691
0.000514193
0.000488427
0.000508082
0.000445364
0.000502811
0.00051425
0.000488483
0.000508141
0.000445417
0.00050287
0.000514659
0.000488888
0.000508558
0.000445795
0.000503285
0.000514792
0.000489019
0.000508695
0.000445918
0.000503422
0.000515697
0.000489916
0.000509617
0.000446755
0.00050434
0.000515937
0.000490153
0.000509862
0.000446975
0.000504585
0.000517917
0.000492129
0.000511873
0.000448828
0.000506593
0.000518256
0.000492464
0.000512216
0.00044914
0.000506937
0.000524044
0.000498365
0.000518087
0.000454895
0.000512921
0.000523731
0.000498325
0.00051826
0.000455325
0.000515624
0.000518038
0.000492528
0.00051249
0.00044967
0.000509736
0.000517701
0.000492195
0.00051215
0.000449361
0.000509394
0.00051572
0.000490219
0.000510138
0.000447507
0.000507381
0.000515481
0.000489983
0.000509894
0.000447287
0.000507136
0.000514574
0.000489085
0.000508971
0.000446448
0.000506214
0.000514441
0.000488954
0.000508834
0.000446325
0.000506077
0.000514031
0.000488548
0.000508416
0.000445946
0.00050566
0.000513975
0.000488492
0.000508358
0.000445894
0.000505601
0.000513857
0.000488376
0.000508237
0.000445785
0.000505481
0.000513857
0.000488376
0.000508237
0.000445785
0.000505481
0.000513975
0.000488492
0.000508358
0.000445894
0.000505601
0.000514031
0.000488548
0.000508416
0.000445946
0.00050566
0.000514441
0.000488954
0.000508834
0.000446325
0.000506077
0.000514574
0.000489085
0.000508971
0.000446448
0.000506214
0.000515481
0.000489983
0.000509894
0.000447287
0.000507136
0.00051572
0.000490219
0.000510138
0.000447507
0.000507381
0.000517701
0.000492195
0.00051215
0.000449361
0.000509394
0.000518038
0.000492528
0.00051249
0.00044967
0.000509736
0.000523731
0.000498325
0.00051826
0.000455325
0.000515624
0.000523514
0.0004984
0.000518523
0.000455955
0.000517474
0.000517921
0.000492709
0.000512859
0.000450403
0.000511671
0.000517588
0.00049238
0.000512522
0.000450097
0.00051133
0.000515608
0.000490406
0.000510512
0.000448242
0.000509311
0.00051537
0.000490171
0.000510269
0.000448022
0.000509067
0.000514463
0.000489273
0.000509345
0.000447182
0.000508142
0.00051433
0.000489141
0.000509209
0.00044706
0.000508004
0.000513919
0.000488736
0.00050879
0.00044668
0.000507585
0.000513863
0.00048868
0.000508732
0.000446628
0.000507526
0.000513745
0.000488564
0.000508612
0.000446519
0.000507405
0.000513745
0.000488564
0.000508612
0.000446519
0.000507405
0.000513863
0.00048868
0.000508732
0.000446628
0.000507526
0.000513919
0.000488736
0.00050879
0.00044668
0.000507585
0.00051433
0.000489141
0.000509209
0.00044706
0.000508004
0.000514463
0.000489273
0.000509345
0.000447182
0.000508142
0.00051537
0.000490171
0.000510269
0.000448022
0.000509067
0.000515608
0.000490406
0.000510512
0.000448242
0.000509311
0.000517588
0.00049238
0.000512522
0.000450097
0.00051133
0.000517921
0.000492709
0.000512859
0.000450403
0.000511671
0.000523514
0.0004984
0.000518523
0.000455955
0.000517474
0.000523183
0.000498358
0.000518656
0.000456483
0.000516264
0.000517691
0.000492773
0.000513097
0.000451033
0.00051056
0.00051736
0.000492446
0.000512762
0.000450729
0.000510223
0.000515383
0.000490475
0.000510756
0.000448875
0.000508207
0.000515145
0.000490241
0.000510514
0.000448656
0.000507964
0.000514238
0.000489343
0.00050959
0.000447815
0.000507039
0.000514105
0.000489212
0.000509454
0.000447693
0.000506902
0.000513694
0.000488807
0.000509035
0.000447312
0.000506482
0.000513638
0.000488751
0.000508978
0.00044726
0.000506424
0.00051352
0.000488635
0.000508857
0.000447151
0.000506303
0.00051352
0.000488635
0.000508857
0.000447151
0.000506303
0.000513638
0.000488751
0.000508978
0.00044726
0.000506424
0.000513694
0.000488807
0.000509035
0.000447312
0.000506482
0.000514105
0.000489212
0.000509454
0.000447693
0.000506902
0.000514238
0.000489343
0.00050959
0.000447815
0.000507039
0.000515145
0.000490241
0.000510514
0.000448656
0.000507964
0.000515383
0.000490475
0.000510756
0.000448875
0.000508207
0.00051736
0.000492446
0.000512762
0.000450729
0.000510223
0.000517691
0.000492773
0.000513097
0.000451033
0.00051056
0.000523183
0.000498358
0.000518656
0.000456483
0.000516264
0.000522813
0.000498264
0.00051873
0.000456881
0.000514184
0.000517418
0.000492781
0.000513273
0.000451531
0.000508582
0.00051709
0.000492458
0.000512942
0.00045123
0.000508248
0.000515115
0.00049049
0.000510938
0.000449377
0.00050624
0.000514879
0.000490257
0.000510697
0.000449159
0.000505997
0.000513971
0.000489359
0.000509773
0.000448317
0.000505073
0.000513839
0.000489229
0.000509638
0.000448195
0.000504937
0.000513428
0.000488823
0.000509219
0.000447814
0.000504518
0.000513371
0.000488767
0.000509161
0.000447762
0.00050446
0.000513253
0.000488651
0.000509041
0.000447653
0.000504339
0.000513253
0.000488651
0.000509041
0.000447653
0.000504339
0.000513371
0.000488767
0.000509161
0.000447762
0.00050446
0.000513428
0.000488823
0.000509219
0.000447814
0.000504518
0.000513839
0.000489229
0.000509638
0.000448195
0.000504937
0.000513971
0.000489359
0.000509773
0.000448317
0.000505073
0.000514879
0.000490257
0.000510697
0.000449159
0.000505997
0.000515115
0.00049049
0.000510938
0.000449377
0.00050624
0.00051709
0.000492458
0.000512942
0.00045123
0.000508248
0.000517418
0.000492781
0.000513273
0.000451531
0.000508582
0.000522813
0.000498264
0.00051873
0.000456881
0.000514184
0.000522466
0.000498181
0.000518811
0.000457197
0.000512363
0.000517166
0.000492798
0.000513453
0.000451946
0.000506862
0.00051684
0.000492477
0.000513124
0.000451646
0.000506531
0.000514868
0.000490513
0.000511124
0.000449796
0.000504528
0.000514633
0.000490281
0.000510884
0.000449579
0.000504287
0.000513725
0.000489383
0.00050996
0.000448736
0.000503364
0.000513593
0.000489253
0.000509825
0.000448614
0.000503229
0.000513181
0.000488847
0.000509406
0.000448233
0.00050281
0.000513125
0.000488792
0.000509348
0.000448181
0.000502752
0.000513007
0.000488675
0.000509227
0.000448071
0.000502631
0.000513007
0.000488675
0.000509227
0.000448071
0.000502631
0.000513125
0.000488792
0.000509348
0.000448181
0.000502752
0.000513181
0.000488847
0.000509406
0.000448233
0.00050281
0.000513593
0.000489253
0.000509825
0.000448614
0.000503229
0.000513725
0.000489383
0.00050996
0.000448736
0.000503364
0.000514633
0.000490281
0.000510884
0.000449579
0.000504287
0.000514868
0.000490513
0.000511124
0.000449796
0.000504528
0.00051684
0.000492477
0.000513124
0.000451646
0.000506531
0.000517166
0.000492798
0.000513453
0.000451946
0.000506862
0.000522466
0.000498181
0.000518811
0.000457197
0.000512363
0.00052215
0.000498119
0.000518907
0.000457453
0.000510804
0.000516942
0.000492835
0.000513646
0.000452298
0.0005054
0.000516619
0.000492516
0.00051332
0.000452001
0.000505072
0.000514651
0.000490556
0.000511324
0.000450153
0.000503075
0.000514416
0.000490325
0.000511085
0.000449937
0.000502836
0.000513508
0.000489427
0.00051016
0.000449094
0.000501913
0.000513376
0.000489297
0.000510026
0.000448972
0.000501778
0.000512965
0.000488891
0.000509607
0.000448591
0.000501359
0.000512909
0.000488836
0.000509549
0.000448539
0.000501302
0.00051279
0.000488719
0.000509428
0.000448429
0.000501181
0.00051279
0.000488719
0.000509428
0.000448429
0.000501181
0.000512909
0.000488836
0.000509549
0.000448539
0.000501302
0.000512965
0.000488891
0.000509607
0.000448591
0.000501359
0.000513376
0.000489297
0.000510026
0.000448972
0.000501778
0.000513508
0.000489427
0.00051016
0.000449094
0.000501913
0.000514416
0.000490325
0.000511085
0.000449937
0.000502836
0.000514651
0.000490556
0.000511324
0.000450153
0.000503075
0.000516619
0.000492516
0.00051332
0.000452001
0.000505072
0.000516942
0.000492835
0.000513646
0.000452298
0.0005054
0.00052215
0.000498119
0.000518907
0.000457453
0.000510804
0.000521857
0.000498072
0.000519013
0.000457649
0.000509309
0.00051674
0.000492882
0.000513847
0.000452589
0.000503998
0.000516419
0.000492567
0.000513524
0.000452295
0.000503674
0.000514454
0.000490611
0.000511532
0.00045045
0.000501683
0.00051422
0.000490381
0.000511294
0.000450235
0.000501445
0.000513311
0.000489482
0.000510369
0.000449391
0.000500523
0.000513181
0.000489353
0.000510235
0.00044927
0.000500389
0.000512769
0.000488947
0.000509816
0.000448888
0.00049997
0.000512713
0.000488892
0.000509759
0.000448837
0.000499913
0.000512594
0.000488775
0.000509638
0.000448727
0.000499792
0.000512594
0.000488775
0.000509638
0.000448727
0.000499792
0.000512713
0.000488892
0.000509759
0.000448837
0.000499913
0.000512769
0.000488947
0.000509816
0.000448888
0.00049997
0.000513181
0.000489353
0.000510235
0.00044927
0.000500389
0.000513311
0.000489482
0.000510369
0.000449391
0.000500523
0.00051422
0.000490381
0.000511294
0.000450235
0.000501445
0.000514454
0.000490611
0.000511532
0.00045045
0.000501683
0.000516419
0.000492567
0.000513524
0.000452295
0.000503674
0.00051674
0.000492882
0.000513847
0.000452589
0.000503998
0.000521857
0.000498072
0.000519013
0.000457649
0.000509309
0.000521581
0.000498033
0.000519126
0.000457783
0.000507808
0.000516552
0.000492937
0.000514053
0.000452816
0.000502588
0.000516234
0.000492624
0.000513732
0.000452524
0.000502267
0.000514273
0.000490673
0.000511744
0.000450684
0.000500283
0.00051404
0.000490444
0.000511507
0.000450469
0.000500046
0.000513131
0.000489545
0.000510583
0.000449625
0.000499125
0.000513001
0.000489417
0.00051045
0.000449505
0.000498992
0.000512589
0.000489011
0.00051003
0.000449123
0.000498573
0.000512533
0.000488956
0.000509973
0.000449071
0.000498516
0.000512415
0.000488839
0.000509852
0.000448961
0.000498395
0.000512415
0.000488839
0.000509852
0.000448961
0.000498395
0.000512533
0.000488956
0.000509973
0.000449071
0.000498516
0.000512589
0.000489011
0.00051003
0.000449123
0.000498573
0.000513001
0.000489417
0.00051045
0.000449505
0.000498992
0.000513131
0.000489545
0.000510583
0.000449625
0.000499125
0.00051404
0.000490444
0.000511507
0.000450469
0.000500046
0.000514273
0.000490673
0.000511744
0.000450684
0.000500283
0.000516234
0.000492624
0.000513732
0.000452524
0.000502267
0.000516552
0.000492937
0.000514053
0.000452816
0.000502588
0.000521581
0.000498033
0.000519126
0.000457783
0.000507808
0.000521323
0.000498004
0.000519246
0.000457854
0.000506311
0.00051638
0.000493
0.000514264
0.000452979
0.000501182
0.000516065
0.000492689
0.000513946
0.00045269
0.000500863
0.000514108
0.000490742
0.000511962
0.000450854
0.000498886
0.000513876
0.000490514
0.000511727
0.00045064
0.00049865
0.000512967
0.000489616
0.000510802
0.000449796
0.000497731
0.000512837
0.000489488
0.000510669
0.000449676
0.000497597
0.000512425
0.000489081
0.000510249
0.000449294
0.000497179
0.000512369
0.000489027
0.000510193
0.000449243
0.000497122
0.000512251
0.00048891
0.000510072
0.000449133
0.000497002
0.000512251
0.00048891
0.000510072
0.000449133
0.000497002
0.000512369
0.000489027
0.000510193
0.000449243
0.000497122
0.000512425
0.000489081
0.000510249
0.000449294
0.000497179
0.000512837
0.000489488
0.000510669
0.000449676
0.000497597
0.000512967
0.000489616
0.000510802
0.000449796
0.000497731
0.000513876
0.000490514
0.000511727
0.00045064
0.00049865
0.000514108
0.000490742
0.000511962
0.000450854
0.000498886
0.000516065
0.000492689
0.000513946
0.00045269
0.000500863
0.00051638
0.000493
0.000514264
0.000452979
0.000501182
0.000521323
0.000498004
0.000519246
0.000457854
0.000506311
0.000521082
0.000497985
0.000519376
0.000457864
0.000504834
0.000516224
0.000493069
0.000514483
0.00045308
0.000499791
0.000515911
0.000492761
0.000514167
0.000452793
0.000499475
0.000513958
0.000490819
0.000512188
0.000450962
0.000497506
0.000513727
0.000490592
0.000511954
0.000450749
0.000497271
0.000512818
0.000489694
0.00051103
0.000449906
0.000496352
0.000512689
0.000489567
0.000510897
0.000449786
0.00049622
0.000512276
0.00048916
0.000510477
0.000449404
0.000495802
0.000512221
0.000489106
0.000510421
0.000449353
0.000495745
0.000512103
0.000488989
0.000510299
0.000449243
0.000495624
0.000512103
0.000488989
0.000510299
0.000449243
0.000495624
0.000512221
0.000489106
0.000510421
0.000449353
0.000495745
0.000512276
0.00048916
0.000510477
0.000449404
0.000495802
0.000512689
0.000489567
0.000510897
0.000449786
0.00049622
0.000512818
0.000489694
0.00051103
0.000449906
0.000496352
0.000513727
0.000490592
0.000511954
0.000450749
0.000497271
0.000513958
0.000490819
0.000512188
0.000450962
0.000497506
0.000515911
0.000492761
0.000514167
0.000452793
0.000499475
0.000516224
0.000493069
0.000514483
0.00045308
0.000499791
0.000521082
0.000497985
0.000519376
0.000457864
0.000504834
0.000520859
0.000497977
0.000519517
0.000457813
0.000503309
0.000516084
0.000493148
0.00051471
0.000453118
0.000498352
0.000515773
0.000492842
0.000514397
0.000452834
0.000498039
0.000513825
0.000490905
0.000512424
0.000451008
0.000496078
0.000513595
0.000490679
0.00051219
0.000450796
0.000495844
0.000512686
0.000489781
0.000511266
0.000449953
0.000494927
0.000512557
0.000489654
0.000511134
0.000449834
0.000494795
0.000512144
0.000489248
0.000510714
0.000449452
0.000494377
0.000512089
0.000489194
0.000510658
0.000449401
0.00049432
0.00051197
0.000489077
0.000510536
0.000449291
0.0004942
0.00051197
0.000489077
0.000510536
0.000449291
0.0004942
0.000512089
0.000489194
0.000510658
0.000449401
0.00049432
0.000512144
0.000489248
0.000510714
0.000449452
0.000494377
0.000512557
0.000489654
0.000511134
0.000449834
0.000494795
0.000512686
0.000489781
0.000511266
0.000449953
0.000494927
0.000513595
0.000490679
0.00051219
0.000450796
0.000495844
0.000513825
0.000490905
0.000512424
0.000451008
0.000496078
0.000515773
0.000492842
0.000514397
0.000452834
0.000498039
0.000516084
0.000493148
0.00051471
0.000453118
0.000498352
0.000520859
0.000497977
0.000519517
0.000457813
0.000503309
-1.62478e-05
1.57604e-05
2.81924e-06
6.98288e-07
2.51564e-07
1.80868e-07
1.65349e-07
1.62509e-07
1.61811e-07
1.61663e-07
1.61615e-07
1.61593e-07
1.61495e-07
1.61386e-07
1.60519e-07
1.59851e-07
1.53415e-07
1.50644e-07
1.11916e-07
1.07812e-07
-1.63162e-05
1.57208e-05
2.83393e-06
7.03366e-07
2.52819e-07
1.81177e-07
1.65404e-07
1.62509e-07
1.61795e-07
1.61643e-07
1.61594e-07
1.61571e-07
1.61471e-07
1.61359e-07
1.60478e-07
1.59803e-07
1.53295e-07
1.50518e-07
1.11616e-07
1.076e-07
-1.63101e-05
1.5711e-05
2.83091e-06
7.02957e-07
2.5274e-07
1.81167e-07
1.65402e-07
1.62508e-07
1.61795e-07
1.61643e-07
1.61593e-07
1.61571e-07
1.61471e-07
1.61359e-07
1.60477e-07
1.59802e-07
1.53293e-07
1.50516e-07
1.11613e-07
1.07598e-07
-1.62809e-05
1.56591e-05
2.81495e-06
7.00831e-07
2.52331e-07
1.81115e-07
1.65391e-07
1.62506e-07
1.61793e-07
1.61642e-07
1.61592e-07
1.6157e-07
1.61469e-07
1.61357e-07
1.60475e-07
1.59799e-07
1.53286e-07
1.50509e-07
1.11601e-07
1.07592e-07
-1.62759e-05
1.56516e-05
2.81234e-06
7.00422e-07
2.52239e-07
1.811e-07
1.65387e-07
1.62505e-07
1.61793e-07
1.61642e-07
1.61592e-07
1.61569e-07
1.61469e-07
1.61357e-07
1.60475e-07
1.59799e-07
1.53286e-07
1.50509e-07
1.11601e-07
1.07591e-07
-1.62597e-05
1.56269e-05
2.80389e-06
6.99158e-07
2.51963e-07
1.81055e-07
1.65377e-07
1.62503e-07
1.61792e-07
1.61642e-07
1.61592e-07
1.61569e-07
1.61469e-07
1.61357e-07
1.60474e-07
1.59798e-07
1.53286e-07
1.50509e-07
1.11601e-07
1.07591e-07
-1.62569e-05
1.56228e-05
2.80245e-06
6.98929e-07
2.5191e-07
1.81046e-07
1.65374e-07
1.62503e-07
1.61792e-07
1.61642e-07
1.61592e-07
1.61569e-07
1.61469e-07
1.61357e-07
1.60474e-07
1.59798e-07
1.53286e-07
1.50509e-07
1.11601e-07
1.07591e-07
-1.62495e-05
1.56116e-05
2.79864e-06
6.98354e-07
2.51783e-07
1.81025e-07
1.65369e-07
1.62502e-07
1.61792e-07
1.61642e-07
1.61592e-07
1.61569e-07
1.61469e-07
1.61357e-07
1.60474e-07
1.59798e-07
1.53286e-07
1.50509e-07
1.11601e-07
1.07591e-07
-1.62483e-05
1.56099e-05
2.79804e-06
6.98258e-07
2.51761e-07
1.81021e-07
1.65369e-07
1.62502e-07
1.61792e-07
1.61642e-07
1.61592e-07
1.61569e-07
1.61469e-07
1.61357e-07
1.60474e-07
1.59798e-07
1.53286e-07
1.50509e-07
1.11601e-07
1.07591e-07
-1.62462e-05
1.56067e-05
2.79695e-06
6.98094e-07
2.51724e-07
1.81015e-07
1.65367e-07
1.62501e-07
1.61792e-07
1.61642e-07
1.61592e-07
1.61569e-07
1.61469e-07
1.61357e-07
1.60474e-07
1.59798e-07
1.53286e-07
1.50509e-07
1.11601e-07
1.07591e-07
-1.62462e-05
1.56067e-05
2.79695e-06
6.98094e-07
2.51724e-07
1.81015e-07
1.65367e-07
1.62501e-07
1.61792e-07
1.61642e-07
1.61592e-07
1.61569e-07
1.61469e-07
1.61357e-07
1.60474e-07
1.59798e-07
1.53286e-07
1.50509e-07
1.11601e-07
1.07591e-07
-1.62483e-05
1.56099e-05
2.79804e-06
6.98258e-07
2.51761e-07
1.81021e-07
1.65369e-07
1.62502e-07
1.61792e-07
1.61642e-07
1.61592e-07
1.61569e-07
1.61469e-07
1.61357e-07
1.60474e-07
1.59798e-07
1.53286e-07
1.50509e-07
1.11601e-07
1.07591e-07
-1.62495e-05
1.56116e-05
2.79864e-06
6.98354e-07
2.51783e-07
1.81025e-07
1.65369e-07
1.62502e-07
1.61792e-07
1.61642e-07
1.61592e-07
1.61569e-07
1.61469e-07
1.61357e-07
1.60474e-07
1.59798e-07
1.53286e-07
1.50509e-07
1.11601e-07
1.07591e-07
-1.62569e-05
1.56228e-05
2.80245e-06
6.98929e-07
2.5191e-07
1.81046e-07
1.65374e-07
1.62503e-07
1.61792e-07
1.61642e-07
1.61592e-07
1.61569e-07
1.61469e-07
1.61357e-07
1.60474e-07
1.59798e-07
1.53286e-07
1.50509e-07
1.11601e-07
1.07591e-07
-1.62597e-05
1.56269e-05
2.80389e-06
6.99158e-07
2.51963e-07
1.81055e-07
1.65377e-07
1.62503e-07
1.61792e-07
1.61642e-07
1.61592e-07
1.61569e-07
1.61469e-07
1.61357e-07
1.60474e-07
1.59798e-07
1.53286e-07
1.50509e-07
1.11601e-07
1.07591e-07
-1.62759e-05
1.56516e-05
2.81234e-06
7.00422e-07
2.52239e-07
1.811e-07
1.65387e-07
1.62505e-07
1.61793e-07
1.61642e-07
1.61592e-07
1.61569e-07
1.61469e-07
1.61357e-07
1.60475e-07
1.59799e-07
1.53286e-07
1.50509e-07
1.11601e-07
1.07591e-07
-1.62809e-05
1.56591e-05
2.81495e-06
7.00831e-07
2.52331e-07
1.81115e-07
1.65391e-07
1.62506e-07
1.61793e-07
1.61642e-07
1.61592e-07
1.6157e-07
1.61469e-07
1.61357e-07
1.60475e-07
1.59799e-07
1.53286e-07
1.50509e-07
1.11601e-07
1.07592e-07
-1.63101e-05
1.5711e-05
2.83091e-06
7.02957e-07
2.5274e-07
1.81167e-07
1.65402e-07
1.62508e-07
1.61795e-07
1.61643e-07
1.61593e-07
1.61571e-07
1.61471e-07
1.61359e-07
1.60477e-07
1.59802e-07
1.53293e-07
1.50516e-07
1.11613e-07
1.07598e-07
-1.63162e-05
1.57208e-05
2.83393e-06
7.03366e-07
2.52819e-07
1.81177e-07
1.65404e-07
1.62509e-07
1.61795e-07
1.61643e-07
1.61594e-07
1.61571e-07
1.61471e-07
1.61359e-07
1.60478e-07
1.59803e-07
1.53295e-07
1.50518e-07
1.11616e-07
1.076e-07
-1.62478e-05
1.57604e-05
2.81924e-06
6.98288e-07
2.51564e-07
1.80868e-07
1.65349e-07
1.62509e-07
1.61811e-07
1.61663e-07
1.61615e-07
1.61593e-07
1.61495e-07
1.61386e-07
1.60519e-07
1.59851e-07
1.53415e-07
1.50644e-07
1.11916e-07
1.07812e-07
-1.58627e-05
1.59305e-05
2.84467e-06
7.03723e-07
2.52518e-07
1.8109e-07
1.65375e-07
1.62603e-07
1.61902e-07
1.61752e-07
1.61703e-07
1.61681e-07
1.61582e-07
1.6147e-07
1.60564e-07
1.59833e-07
1.53333e-07
1.50537e-07
1.11321e-07
1.07188e-07
-1.59263e-05
1.58908e-05
2.85952e-06
7.08857e-07
2.53788e-07
1.81402e-07
1.65432e-07
1.62601e-07
1.61886e-07
1.61732e-07
1.61682e-07
1.61659e-07
1.61557e-07
1.61444e-07
1.60522e-07
1.59784e-07
1.53212e-07
1.50409e-07
1.11017e-07
1.06972e-07
-1.592e-05
1.58809e-05
2.85647e-06
7.08445e-07
2.53708e-07
1.81392e-07
1.6543e-07
1.62601e-07
1.61886e-07
1.61732e-07
1.61682e-07
1.61659e-07
1.61557e-07
1.61444e-07
1.60521e-07
1.59783e-07
1.5321e-07
1.50407e-07
1.11014e-07
1.0697e-07
-1.58899e-05