/*--------------------------------*- C++ -*----------------------------------*\
  =========                 |
  \\      /  F ield         | OpenFOAM: The Open Source CFD Toolbox
   \\    /   O peration     | Website:  https://openfoam.org
    \\  /    A nd           | Version:  8
     \\/     M anipulation  |
\*---------------------------------------------------------------------------*/
FoamFile
{
    version     2.0;
    format      ascii;
    class       volScalarField;
    location    "3.5";
    object      S1;
}
// * * * * * * * * * * * * * * * * * * * * * * * * * * * * * * * * * * * * * //

dimensions      [0 1 -1 0 0 0 0];

internalField   nonuniform List<scalar> 
180000
(
-1.44449e-26
3.62042e-23
9.21276e-18
3.38759e-13
8.3416e-09
-1.18628e-26
1.29076e-22
1.18073e-17
3.971e-13
9.41566e-09
-1.18503e-26
1.29999e-22
1.18366e-17
3.97737e-13
9.42566e-09
-1.18241e-26
1.32549e-22
1.19206e-17
3.99596e-13
9.4548e-09
-1.18436e-26
1.32022e-22
1.19066e-17
3.99252e-13
9.44715e-09
-1.19048e-26
1.30347e-22
1.18626e-17
3.98194e-13
9.42423e-09
-1.19151e-26
1.30044e-22
1.18543e-17
3.97991e-13
9.41979e-09
-1.19411e-26
1.29286e-22
1.18338e-17
3.97494e-13
9.40905e-09
-1.1945e-26
1.29171e-22
1.18307e-17
3.97416e-13
9.40733e-09
-1.19516e-26
1.28974e-22
1.18253e-17
3.97284e-13
9.40445e-09
-1.19516e-26
1.28974e-22
1.18253e-17
3.97284e-13
9.40445e-09
-1.1945e-26
1.29171e-22
1.18307e-17
3.97416e-13
9.40733e-09
-1.19411e-26
1.29286e-22
1.18338e-17
3.97494e-13
9.40905e-09
-1.19151e-26
1.30044e-22
1.18543e-17
3.97991e-13
9.41979e-09
-1.19048e-26
1.30347e-22
1.18626e-17
3.98193e-13
9.42423e-09
-1.18436e-26
1.32022e-22
1.19066e-17
3.99252e-13
9.44715e-09
-1.18241e-26
1.32549e-22
1.19206e-17
3.99596e-13
9.4548e-09
-1.18503e-26
1.29999e-22
1.18366e-17
3.97737e-13
9.42566e-09
-1.18628e-26
1.29076e-22
1.18073e-17
3.971e-13
9.41567e-09
-1.44449e-26
3.62042e-23
9.21276e-18
3.38759e-13
8.3416e-09
-1.44451e-26
3.61959e-23
9.21257e-18
3.39707e-13
1.0019e-08
-1.18631e-26
1.29064e-22
1.18069e-17
3.98096e-13
1.11991e-08
-1.18506e-26
1.29987e-22
1.18362e-17
3.98733e-13
1.12087e-08
-1.18244e-26
1.32537e-22
1.19203e-17
4.00587e-13
1.12347e-08
-1.18439e-26
1.3201e-22
1.19063e-17
4.00242e-13
1.12252e-08
-1.1905e-26
1.30335e-22
1.18622e-17
3.99179e-13
1.11965e-08
-1.19154e-26
1.30032e-22
1.1854e-17
3.98976e-13
1.1191e-08
-1.19414e-26
1.29274e-22
1.18335e-17
3.98477e-13
1.11776e-08
-1.19453e-26
1.29159e-22
1.18303e-17
3.98399e-13
1.11755e-08
-1.19519e-26
1.28962e-22
1.18249e-17
3.98267e-13
1.11719e-08
-1.19519e-26
1.28962e-22
1.18249e-17
3.98267e-13
1.11719e-08
-1.19453e-26
1.29159e-22
1.18303e-17
3.98399e-13
1.11755e-08
-1.19414e-26
1.29274e-22
1.18335e-17
3.98477e-13
1.11776e-08
-1.19154e-26
1.30032e-22
1.1854e-17
3.98976e-13
1.1191e-08
-1.1905e-26
1.30335e-22
1.18622e-17
3.99179e-13
1.11965e-08
-1.18439e-26
1.3201e-22
1.19063e-17
4.00242e-13
1.12252e-08
-1.18244e-26
1.32537e-22
1.19203e-17
4.00587e-13
1.12347e-08
-1.18506e-26
1.29987e-22
1.18362e-17
3.98733e-13
1.12087e-08
-1.18631e-26
1.29064e-22
1.18069e-17
3.98097e-13
1.11991e-08
-1.44451e-26
3.61958e-23
9.21257e-18
3.39707e-13
1.0019e-08
-1.44452e-26
3.61908e-23
9.21653e-18
3.47011e-13
2.10754e-08
-1.18633e-26
1.29052e-22
1.18107e-17
4.05676e-13
2.27427e-08
-1.18508e-26
1.29976e-22
1.184e-17
4.06308e-13
2.27492e-08
-1.18246e-26
1.32526e-22
1.1924e-17
4.08134e-13
2.2758e-08
-1.18441e-26
1.31999e-22
1.191e-17
4.07782e-13
2.27396e-08
-1.19052e-26
1.30324e-22
1.1866e-17
4.06692e-13
2.26825e-08
-1.19156e-26
1.3002e-22
1.18577e-17
4.06484e-13
2.26719e-08
-1.19416e-26
1.29263e-22
1.18372e-17
4.05973e-13
2.26453e-08
-1.19455e-26
1.29148e-22
1.1834e-17
4.05893e-13
2.26411e-08
-1.19521e-26
1.28951e-22
1.18287e-17
4.05757e-13
2.26337e-08
-1.19521e-26
1.28951e-22
1.18287e-17
4.05757e-13
2.26337e-08
-1.19455e-26
1.29148e-22
1.1834e-17
4.05893e-13
2.26411e-08
-1.19416e-26
1.29263e-22
1.18372e-17
4.05973e-13
2.26453e-08
-1.19156e-26
1.3002e-22
1.18577e-17
4.06484e-13
2.26719e-08
-1.19052e-26
1.30324e-22
1.1866e-17
4.06692e-13
2.26825e-08
-1.18441e-26
1.31999e-22
1.191e-17
4.07782e-13
2.27396e-08
-1.18246e-26
1.32526e-22
1.1924e-17
4.08134e-13
2.2758e-08
-1.18508e-26
1.29976e-22
1.184e-17
4.06308e-13
2.27492e-08
-1.18633e-26
1.29052e-22
1.18107e-17
4.05676e-13
2.27427e-08
-1.44452e-26
3.61908e-23
9.21653e-18
3.47011e-13
2.10754e-08
-1.44454e-26
3.61971e-23
9.2368e-18
3.73693e-13
5.47102e-08
-1.18635e-26
1.29048e-22
1.1831e-17
4.33027e-13
5.73356e-08
-1.1851e-26
1.29973e-22
1.18603e-17
4.33642e-13
5.73337e-08
-1.18248e-26
1.32522e-22
1.19441e-17
4.35378e-13
5.7305e-08
-1.18443e-26
1.31995e-22
1.19301e-17
4.35001e-13
5.72675e-08
-1.19055e-26
1.3032e-22
1.1886e-17
4.33832e-13
5.71501e-08
-1.19158e-26
1.30017e-22
1.18777e-17
4.3361e-13
5.71287e-08
-1.19418e-26
1.29259e-22
1.18571e-17
4.33063e-13
5.70736e-08
-1.19457e-26
1.29144e-22
1.1854e-17
4.32977e-13
5.70649e-08
-1.19524e-26
1.28947e-22
1.18486e-17
4.32831e-13
5.70496e-08
-1.19524e-26
1.28947e-22
1.18486e-17
4.32831e-13
5.70496e-08
-1.19457e-26
1.29144e-22
1.1854e-17
4.32977e-13
5.70649e-08
-1.19418e-26
1.29259e-22
1.18571e-17
4.33063e-13
5.70736e-08
-1.19158e-26
1.30017e-22
1.18777e-17
4.3361e-13
5.71287e-08
-1.19055e-26
1.3032e-22
1.1886e-17
4.33832e-13
5.71501e-08
-1.18443e-26
1.31995e-22
1.19301e-17
4.35001e-13
5.72675e-08
-1.18248e-26
1.32522e-22
1.19441e-17
4.35378e-13
5.7305e-08
-1.1851e-26
1.29973e-22
1.18603e-17
4.33642e-13
5.73337e-08
-1.18635e-26
1.29048e-22
1.1831e-17
4.33027e-13
5.73356e-08
-1.44454e-26
3.61971e-23
9.2368e-18
3.73693e-13
5.47102e-08
-1.44455e-26
3.62398e-23
9.29725e-18
4.38512e-13
1.20806e-07
-1.18638e-26
1.29075e-22
1.18915e-17
4.98843e-13
1.24537e-07
-1.18512e-26
1.30001e-22
1.19208e-17
4.99418e-13
1.24519e-07
-1.1825e-26
1.3255e-22
1.20042e-17
5.00947e-13
1.24431e-07
-1.18445e-26
1.32023e-22
1.19901e-17
5.00521e-13
1.24366e-07
-1.19057e-26
1.30348e-22
1.19458e-17
4.99189e-13
1.24166e-07
-1.1916e-26
1.30044e-22
1.19374e-17
4.98939e-13
1.24129e-07
-1.1942e-26
1.29287e-22
1.19168e-17
4.98316e-13
1.24034e-07
-1.19459e-26
1.29172e-22
1.19136e-17
4.98219e-13
1.24019e-07
-1.19525e-26
1.28975e-22
1.19082e-17
4.98052e-13
1.23992e-07
-1.19525e-26
1.28975e-22
1.19082e-17
4.98052e-13
1.23992e-07
-1.19459e-26
1.29172e-22
1.19136e-17
4.98219e-13
1.24019e-07
-1.1942e-26
1.29287e-22
1.19168e-17
4.98316e-13
1.24034e-07
-1.1916e-26
1.30044e-22
1.19374e-17
4.98939e-13
1.24129e-07
-1.19057e-26
1.30348e-22
1.19458e-17
4.99189e-13
1.24166e-07
-1.18445e-26
1.32023e-22
1.19901e-17
5.00521e-13
1.24366e-07
-1.1825e-26
1.3255e-22
1.20042e-17
5.00947e-13
1.24431e-07
-1.18512e-26
1.30001e-22
1.19208e-17
4.99418e-13
1.24519e-07
-1.18638e-26
1.29076e-22
1.18915e-17
4.98843e-13
1.24537e-07
-1.44455e-26
3.62398e-23
9.29725e-18
4.38512e-13
1.20806e-07
-1.44456e-26
3.63661e-23
9.43475e-18
5.62101e-13
2.22543e-07
-1.18639e-26
1.29183e-22
1.20288e-17
6.23452e-13
2.27138e-07
-1.18513e-26
1.30109e-22
1.2058e-17
6.23952e-13
2.27095e-07
-1.18252e-26
1.32656e-22
1.21406e-17
6.25093e-13
2.26907e-07
-1.18446e-26
1.32129e-22
1.21264e-17
6.24584e-13
2.2681e-07
-1.19058e-26
1.30454e-22
1.20815e-17
6.22976e-13
2.2651e-07
-1.19161e-26
1.30151e-22
1.20731e-17
6.22681e-13
2.26455e-07
-1.19421e-26
1.29393e-22
1.20522e-17
6.2193e-13
2.26313e-07
-1.1946e-26
1.29278e-22
1.2049e-17
6.21813e-13
2.2629e-07
-1.19527e-26
1.29081e-22
1.20435e-17
6.21609e-13
2.26249e-07
-1.19527e-26
1.29081e-22
1.20435e-17
6.21609e-13
2.26249e-07
-1.1946e-26
1.29278e-22
1.2049e-17
6.21813e-13
2.2629e-07
-1.19421e-26
1.29393e-22
1.20522e-17
6.2193e-13
2.26313e-07
-1.19161e-26
1.30151e-22
1.20731e-17
6.22681e-13
2.26455e-07
-1.19058e-26
1.30454e-22
1.20815e-17
6.22976e-13
2.2651e-07
-1.18446e-26
1.32129e-22
1.21264e-17
6.24584e-13
2.2681e-07
-1.18252e-26
1.32656e-22
1.21406e-17
6.25093e-13
2.26907e-07
-1.18513e-26
1.30109e-22
1.2058e-17
6.23952e-13
2.27095e-07
-1.18639e-26
1.29183e-22
1.20288e-17
6.23452e-13
2.27138e-07
-1.44456e-26
3.63661e-23
9.43475e-18
5.62101e-13
2.22543e-07
-1.44454e-26
3.66539e-23
9.69912e-18
7.65043e-13
3.59756e-07
-1.18639e-26
1.29446e-22
1.2292e-17
8.27004e-13
3.64757e-07
-1.18513e-26
1.30374e-22
1.23209e-17
8.27378e-13
3.64676e-07
-1.18251e-26
1.32917e-22
1.24019e-17
8.27867e-13
3.64321e-07
-1.18446e-26
1.3239e-22
1.23874e-17
8.27234e-13
3.64185e-07
-1.19057e-26
1.30714e-22
1.23417e-17
8.25205e-13
3.63762e-07
-1.19161e-26
1.3041e-22
1.23331e-17
8.24839e-13
3.63685e-07
-1.19421e-26
1.29652e-22
1.23118e-17
8.23894e-13
3.63485e-07
-1.1946e-26
1.29537e-22
1.23085e-17
8.23748e-13
3.63452e-07
-1.19526e-26
1.2934e-22
1.23029e-17
8.23488e-13
3.63395e-07
-1.19526e-26
1.2934e-22
1.23029e-17
8.23488e-13
3.63395e-07
-1.1946e-26
1.29537e-22
1.23085e-17
8.23748e-13
3.63452e-07
-1.19421e-26
1.29652e-22
1.23118e-17
8.23894e-13
3.63485e-07
-1.19161e-26
1.3041e-22
1.23331e-17
8.24839e-13
3.63685e-07
-1.19057e-26
1.30714e-22
1.23417e-17
8.25205e-13
3.63762e-07
-1.18446e-26
1.3239e-22
1.23874e-17
8.27234e-13
3.64185e-07
-1.18251e-26
1.32917e-22
1.24019e-17
8.27867e-13
3.64321e-07
-1.18513e-26
1.30374e-22
1.23209e-17
8.27378e-13
3.64676e-07
-1.18639e-26
1.29446e-22
1.2292e-17
8.27004e-13
3.64757e-07
-1.44454e-26
3.66539e-23
9.69911e-18
7.65043e-13
3.59756e-07
-1.44449e-26
3.72191e-23
1.0153e-17
1.06764e-12
5.31874e-07
-1.18636e-26
1.29979e-22
1.27425e-17
1.12929e-12
5.36709e-07
-1.18509e-26
1.30907e-22
1.27709e-17
1.12948e-12
5.36573e-07
-1.18247e-26
1.33446e-22
1.28492e-17
1.12895e-12
5.35951e-07
-1.18442e-26
1.32918e-22
1.28343e-17
1.12814e-12
5.35768e-07
-1.19053e-26
1.3124e-22
1.2787e-17
1.12551e-12
5.35187e-07
-1.19157e-26
1.30936e-22
1.27782e-17
1.12504e-12
5.35082e-07
-1.19417e-26
1.30176e-22
1.27562e-17
1.12382e-12
5.34809e-07
-1.19456e-26
1.30061e-22
1.27528e-17
1.12363e-12
5.34765e-07
-1.19522e-26
1.29864e-22
1.2747e-17
1.12329e-12
5.34687e-07
-1.19522e-26
1.29864e-22
1.2747e-17
1.12329e-12
5.34687e-07
-1.19456e-26
1.30061e-22
1.27528e-17
1.12363e-12
5.34765e-07
-1.19417e-26
1.30176e-22
1.27562e-17
1.12382e-12
5.34809e-07
-1.19157e-26
1.30936e-22
1.27782e-17
1.12504e-12
5.35082e-07
-1.19053e-26
1.3124e-22
1.2787e-17
1.12551e-12
5.35187e-07
-1.18442e-26
1.32918e-22
1.28343e-17
1.12814e-12
5.35768e-07
-1.18247e-26
1.33446e-22
1.28492e-17
1.12895e-12
5.35951e-07
-1.18509e-26
1.30907e-22
1.27709e-17
1.12948e-12
5.36573e-07
-1.18636e-26
1.29979e-22
1.27425e-17
1.12929e-12
5.36709e-07
-1.44449e-26
3.72191e-23
1.0153e-17
1.06764e-12
5.31874e-07
-1.44437e-26
3.82238e-23
1.08715e-17
1.48997e-12
7.38441e-07
-1.18626e-26
1.30939e-22
1.34539e-17
1.54984e-12
7.42422e-07
-1.18499e-26
1.31869e-22
1.34816e-17
1.54974e-12
7.42211e-07
-1.18237e-26
1.34398e-22
1.35555e-17
1.54773e-12
7.41194e-07
-1.18432e-26
1.33869e-22
1.35399e-17
1.54668e-12
7.40952e-07
-1.19043e-26
1.32187e-22
1.34902e-17
1.54321e-12
7.40166e-07
-1.19147e-26
1.31882e-22
1.3481e-17
1.54261e-12
7.40028e-07
-1.19407e-26
1.31121e-22
1.3458e-17
1.541e-12
7.39661e-07
-1.19446e-26
1.31005e-22
1.34544e-17
1.54076e-12
7.39603e-07
-1.19512e-26
1.30808e-22
1.34483e-17
1.54031e-12
7.39498e-07
-1.19512e-26
1.30808e-22
1.34483e-17
1.54031e-12
7.39498e-07
-1.19446e-26
1.31005e-22
1.34544e-17
1.54076e-12
7.39603e-07
-1.19407e-26
1.31121e-22
1.3458e-17
1.541e-12
7.39661e-07
-1.19147e-26
1.31882e-22
1.3481e-17
1.54261e-12
7.40028e-07
-1.19043e-26
1.32187e-22
1.34902e-17
1.54321e-12
7.40166e-07
-1.18432e-26
1.33869e-22
1.35399e-17
1.54668e-12
7.40952e-07
-1.18237e-26
1.34398e-22
1.35555e-17
1.54773e-12
7.41194e-07
-1.18499e-26
1.31869e-22
1.34816e-17
1.54974e-12
7.42211e-07
-1.18626e-26
1.30939e-22
1.34539e-17
1.54984e-12
7.42422e-07
-1.44437e-26
3.82238e-23
1.08715e-17
1.48997e-12
7.38441e-07
-1.44415e-26
3.98834e-23
1.19423e-17
2.05148e-12
9.78306e-07
-1.18606e-26
1.32538e-22
1.45114e-17
2.10742e-12
9.8059e-07
-1.18478e-26
1.33467e-22
1.45379e-17
2.10694e-12
9.80281e-07
-1.18217e-26
1.35981e-22
1.46051e-17
2.10282e-12
9.78713e-07
-1.18412e-26
1.3545e-22
1.45886e-17
2.10146e-12
9.78399e-07
-1.19023e-26
1.33761e-22
1.45354e-17
2.09687e-12
9.7735e-07
-1.19127e-26
1.33456e-22
1.45257e-17
2.09609e-12
9.77172e-07
-1.19387e-26
1.32691e-22
1.4501e-17
2.09398e-12
9.76686e-07
-1.19426e-26
1.32575e-22
1.44973e-17
2.09366e-12
9.76611e-07
-1.19493e-26
1.32377e-22
1.44907e-17
2.09306e-12
9.76471e-07
-1.19492e-26
1.32377e-22
1.44907e-17
2.09306e-12
9.76471e-07
-1.19426e-26
1.32575e-22
1.44973e-17
2.09366e-12
9.76611e-07
-1.19387e-26
1.32691e-22
1.4501e-17
2.09398e-12
9.76686e-07
-1.19127e-26
1.33456e-22
1.45257e-17
2.09609e-12
9.77172e-07
-1.19023e-26
1.33761e-22
1.45354e-17
2.09687e-12
9.7735e-07
-1.18412e-26
1.3545e-22
1.45886e-17
2.10146e-12
9.78399e-07
-1.18217e-26
1.35981e-22
1.46051e-17
2.10282e-12
9.78713e-07
-1.18478e-26
1.33467e-22
1.45379e-17
2.10694e-12
9.80281e-07
-1.18606e-26
1.32538e-22
1.45114e-17
2.10742e-12
9.8059e-07
-1.44415e-26
3.98833e-23
1.19423e-17
2.05148e-12
9.78306e-07
-1.44376e-26
4.24124e-23
1.33641e-17
2.61155e-12
9.76008e-07
-1.18571e-26
1.34984e-22
1.59138e-17
2.66355e-12
9.78346e-07
-1.18442e-26
1.35912e-22
1.59389e-17
2.6627e-12
9.78041e-07
-1.18182e-26
1.38403e-22
1.59972e-17
2.6565e-12
9.76495e-07
-1.18376e-26
1.37869e-22
1.59793e-17
2.65482e-12
9.76184e-07
-1.18988e-26
1.3617e-22
1.59216e-17
2.64912e-12
9.75145e-07
-1.19092e-26
1.35862e-22
1.59112e-17
2.64817e-12
9.74969e-07
-1.19352e-26
1.35093e-22
1.58844e-17
2.64555e-12
9.74488e-07
-1.19391e-26
1.34977e-22
1.58803e-17
2.64515e-12
9.74414e-07
-1.19457e-26
1.34777e-22
1.58732e-17
2.64441e-12
9.74276e-07
-1.19457e-26
1.34777e-22
1.58732e-17
2.64441e-12
9.74276e-07
-1.19391e-26
1.34977e-22
1.58803e-17
2.64515e-12
9.74414e-07
-1.19352e-26
1.35093e-22
1.58844e-17
2.64555e-12
9.74488e-07
-1.19092e-26
1.35862e-22
1.59112e-17
2.64817e-12
9.74969e-07
-1.18988e-26
1.36169e-22
1.59216e-17
2.64912e-12
9.75145e-07
-1.18376e-26
1.37869e-22
1.59793e-17
2.65482e-12
9.76184e-07
-1.18182e-26
1.38403e-22
1.59972e-17
2.6565e-12
9.76495e-07
-1.18442e-26
1.35912e-22
1.59389e-17
2.6627e-12
9.78041e-07
-1.18571e-26
1.34984e-22
1.59138e-17
2.66355e-12
9.78346e-07
-1.44376e-26
4.24124e-23
1.33641e-17
2.61155e-12
9.76008e-07
-1.44314e-26
4.60248e-23
1.5136e-17
3.17015e-12
9.73783e-07
-1.18514e-26
1.38484e-22
1.76602e-17
3.21823e-12
9.76173e-07
-1.18384e-26
1.39409e-22
1.76833e-17
3.217e-12
9.75871e-07
-1.18124e-26
1.41869e-22
1.77305e-17
3.20873e-12
9.74347e-07
-1.18319e-26
1.41331e-22
1.77111e-17
3.20675e-12
9.74038e-07
-1.18931e-26
1.39616e-22
1.76476e-17
3.19995e-12
9.7301e-07
-1.19035e-26
1.39306e-22
1.76363e-17
3.19882e-12
9.72836e-07
-1.19295e-26
1.38531e-22
1.76069e-17
3.19569e-12
9.72359e-07
-1.19334e-26
1.38413e-22
1.76025e-17
3.19523e-12
9.72285e-07
-1.19401e-26
1.38211e-22
1.75945e-17
3.19434e-12
9.72149e-07
-1.19401e-26
1.38211e-22
1.75945e-17
3.19434e-12
9.72149e-07
-1.19334e-26
1.38413e-22
1.76025e-17
3.19523e-12
9.72285e-07
-1.19295e-26
1.38531e-22
1.76069e-17
3.19569e-12
9.72359e-07
-1.19035e-26
1.39306e-22
1.76363e-17
3.19882e-12
9.72836e-07
-1.18931e-26
1.39616e-22
1.76476e-17
3.19995e-12
9.7301e-07
-1.18319e-26
1.41331e-22
1.77111e-17
3.20675e-12
9.74038e-07
-1.18124e-26
1.41869e-22
1.77305e-17
3.20873e-12
9.74347e-07
-1.18384e-26
1.39409e-22
1.76833e-17
3.217e-12
9.75871e-07
-1.18514e-26
1.38484e-22
1.76602e-17
3.21823e-12
9.76173e-07
-1.44314e-26
4.60248e-23
1.5136e-17
3.17015e-12
9.73783e-07
-1.44221e-26
5.09335e-23
1.72565e-17
3.72721e-12
9.71625e-07
-1.18426e-26
1.43247e-22
1.97491e-17
3.77137e-12
9.74063e-07
-1.18295e-26
1.44168e-22
1.97699e-17
3.76977e-12
9.73766e-07
-1.18037e-26
1.46584e-22
1.98038e-17
3.75946e-12
9.72261e-07
-1.18232e-26
1.4604e-22
1.97825e-17
3.75717e-12
9.71955e-07
-1.18844e-26
1.44305e-22
1.97122e-17
3.74927e-12
9.70937e-07
-1.18948e-26
1.43992e-22
1.96998e-17
3.74798e-12
9.70764e-07
-1.19209e-26
1.43207e-22
1.96674e-17
3.74435e-12
9.70292e-07
-1.19247e-26
1.43088e-22
1.96625e-17
3.74381e-12
9.70219e-07
-1.19314e-26
1.42883e-22
1.96537e-17
3.74278e-12
9.70084e-07
-1.19314e-26
1.42883e-22
1.96537e-17
3.74278e-12
9.70084e-07
-1.19247e-26
1.43088e-22
1.96625e-17
3.74381e-12
9.70219e-07
-1.19209e-26
1.43207e-22
1.96674e-17
3.74435e-12
9.70292e-07
-1.18948e-26
1.43992e-22
1.96998e-17
3.74798e-12
9.70764e-07
-1.18844e-26
1.44305e-22
1.97122e-17
3.74927e-12
9.70937e-07
-1.18232e-26
1.4604e-22
1.97825e-17
3.75717e-12
9.71955e-07
-1.18037e-26
1.46584e-22
1.98038e-17
3.75946e-12
9.72261e-07
-1.18295e-26
1.44168e-22
1.97699e-17
3.76977e-12
9.73766e-07
-1.18426e-26
1.43247e-22
1.97491e-17
3.77137e-12
9.74063e-07
-1.44221e-26
5.09335e-23
1.72565e-17
3.72721e-12
9.71625e-07
-1.44086e-26
5.73504e-23
1.97244e-17
4.28265e-12
9.69527e-07
-1.18299e-26
1.49478e-22
2.21793e-17
4.32289e-12
9.72012e-07
-1.18167e-26
1.50392e-22
2.21974e-17
4.32093e-12
9.71719e-07
-1.1791e-26
1.52752e-22
2.22158e-17
4.3086e-12
9.70233e-07
-1.18105e-26
1.52201e-22
2.21923e-17
4.306e-12
9.69931e-07
-1.18719e-26
1.50438e-22
2.21141e-17
4.29702e-12
9.68921e-07
-1.18822e-26
1.50122e-22
2.21006e-17
4.29555e-12
9.6875e-07
-1.19083e-26
1.49324e-22
2.20645e-17
4.29143e-12
9.68282e-07
-1.19122e-26
1.49203e-22
2.20591e-17
4.29082e-12
9.6821e-07
-1.19189e-26
1.48995e-22
2.20493e-17
4.28965e-12
9.68076e-07
-1.19189e-26
1.48995e-22
2.20493e-17
4.28965e-12
9.68076e-07
-1.19122e-26
1.49203e-22
2.20591e-17
4.29082e-12
9.6821e-07
-1.19083e-26
1.49324e-22
2.20645e-17
4.29143e-12
9.68282e-07
-1.18822e-26
1.50122e-22
2.21006e-17
4.29555e-12
9.6875e-07
-1.18719e-26
1.50438e-22
2.21141e-17
4.29702e-12
9.68921e-07
-1.18105e-26
1.52201e-22
2.21923e-17
4.306e-12
9.69931e-07
-1.1791e-26
1.52752e-22
2.22158e-17
4.3086e-12
9.70233e-07
-1.18167e-26
1.50392e-22
2.21974e-17
4.32093e-12
9.71719e-07
-1.18299e-26
1.49478e-22
2.21793e-17
4.32289e-12
9.72012e-07
-1.44086e-26
5.73504e-23
1.97244e-17
4.28265e-12
9.69527e-07
-1.43899e-26
6.54865e-23
2.25383e-17
4.83639e-12
9.67487e-07
-1.18121e-26
1.57383e-22
2.49493e-17
4.87272e-12
9.70017e-07
-1.17989e-26
1.58288e-22
2.49644e-17
4.8704e-12
9.69726e-07
-1.17734e-26
1.60576e-22
2.49652e-17
4.85606e-12
9.6826e-07
-1.17929e-26
1.60016e-22
2.49392e-17
4.85317e-12
9.6796e-07
-1.18544e-26
1.58219e-22
2.4852e-17
4.84311e-12
9.6696e-07
-1.18648e-26
1.57897e-22
2.48371e-17
4.84148e-12
9.6679e-07
-1.18909e-26
1.57084e-22
2.4797e-17
4.83686e-12
9.66326e-07
-1.18948e-26
1.56961e-22
2.4791e-17
4.83618e-12
9.66255e-07
-1.19015e-26
1.56749e-22
2.478e-17
4.83487e-12
9.66122e-07
-1.19015e-26
1.56749e-22
2.478e-17
4.83487e-12
9.66122e-07
-1.18948e-26
1.56961e-22
2.4791e-17
4.83618e-12
9.66255e-07
-1.18909e-26
1.57084e-22
2.4797e-17
4.83686e-12
9.66326e-07
-1.18648e-26
1.57897e-22
2.48371e-17
4.84148e-12
9.6679e-07
-1.18544e-26
1.58219e-22
2.4852e-17
4.84311e-12
9.6696e-07
-1.17929e-26
1.60016e-22
2.49392e-17
4.85317e-12
9.6796e-07
-1.17734e-26
1.60576e-22
2.49652e-17
4.85606e-12
9.6826e-07
-1.17989e-26
1.58288e-22
2.49644e-17
4.8704e-12
9.69726e-07
-1.18121e-26
1.57383e-22
2.49493e-17
4.87272e-12
9.70017e-07
-1.43899e-26
6.54865e-23
2.25383e-17
4.83639e-12
9.67487e-07
-1.43648e-26
7.55519e-23
2.56968e-17
5.38834e-12
9.65499e-07
-1.17881e-26
1.67165e-22
2.80576e-17
5.42077e-12
9.68071e-07
-1.17748e-26
1.68059e-22
2.80693e-17
5.4181e-12
9.67785e-07
-1.17496e-26
1.70259e-22
2.80504e-17
5.40178e-12
9.66336e-07
-1.17692e-26
1.69687e-22
2.80217e-17
5.39859e-12
9.66039e-07
-1.18308e-26
1.67848e-22
2.79244e-17
5.38746e-12
9.65048e-07
-1.18412e-26
1.67519e-22
2.7908e-17
5.38566e-12
9.64879e-07
-1.18674e-26
1.66687e-22
2.78632e-17
5.38056e-12
9.64419e-07
-1.18713e-26
1.66562e-22
2.78566e-17
5.37981e-12
9.64349e-07
-1.1878e-26
1.66343e-22
2.78443e-17
5.37835e-12
9.64217e-07
-1.1878e-26
1.66343e-22
2.78443e-17
5.37835e-12
9.64217e-07
-1.18713e-26
1.66562e-22
2.78566e-17
5.37981e-12
9.64349e-07
-1.18674e-26
1.66687e-22
2.78632e-17
5.38056e-12
9.64419e-07
-1.18412e-26
1.67519e-22
2.7908e-17
5.38566e-12
9.64879e-07
-1.18308e-26
1.67848e-22
2.79244e-17
5.38746e-12
9.65048e-07
-1.17692e-26
1.69687e-22
2.80217e-17
5.39859e-12
9.66039e-07
-1.17496e-26
1.70259e-22
2.80504e-17
5.40178e-12
9.66336e-07
-1.17748e-26
1.68059e-22
2.80693e-17
5.4181e-12
9.67785e-07
-1.17881e-26
1.67165e-22
2.80576e-17
5.42077e-12
9.68071e-07
-1.43648e-26
7.55519e-23
2.56968e-17
5.38834e-12
9.65499e-07
-1.43317e-26
8.77554e-23
2.91981e-17
5.93842e-12
9.63559e-07
-1.17565e-26
1.79028e-22
3.15027e-17
5.96695e-12
9.66173e-07
-1.17432e-26
1.79907e-22
3.15106e-17
5.96393e-12
9.6589e-07
-1.17184e-26
1.82001e-22
3.14698e-17
5.94565e-12
9.64458e-07
-1.1738e-26
1.81415e-22
3.14381e-17
5.94217e-12
9.64163e-07
-1.17998e-26
1.79524e-22
3.13298e-17
5.92998e-12
9.63181e-07
-1.18102e-26
1.79188e-22
3.13116e-17
5.92802e-12
9.63014e-07
-1.18365e-26
1.78333e-22
3.12618e-17
5.92243e-12
9.62558e-07
-1.18404e-26
1.78204e-22
3.12545e-17
5.92161e-12
9.62488e-07
-1.18471e-26
1.77979e-22
3.12407e-17
5.92002e-12
9.62358e-07
-1.18471e-26
1.77979e-22
3.12407e-17
5.92002e-12
9.62358e-07
-1.18404e-26
1.78204e-22
3.12545e-17
5.92161e-12
9.62488e-07
-1.18365e-26
1.78333e-22
3.12618e-17
5.92243e-12
9.62558e-07
-1.18102e-26
1.79188e-22
3.13116e-17
5.92802e-12
9.63014e-07
-1.17998e-26
1.79524e-22
3.13298e-17
5.92998e-12
9.63181e-07
-1.1738e-26
1.81415e-22
3.14381e-17
5.94217e-12
9.64163e-07
-1.17184e-26
1.82001e-22
3.14698e-17
5.94565e-12
9.64458e-07
-1.17432e-26
1.79907e-22
3.15106e-17
5.96393e-12
9.6589e-07
-1.17565e-26
1.79028e-22
3.15027e-17
5.96695e-12
9.66173e-07
-1.43317e-26
8.77554e-23
2.91981e-17
5.93842e-12
9.63559e-07
-1.42893e-26
1.02305e-22
3.30408e-17
6.48653e-12
9.61663e-07
-1.1716e-26
1.93173e-22
3.52828e-17
6.51118e-12
9.64316e-07
-1.17026e-26
1.94034e-22
3.52866e-17
6.50781e-12
9.64036e-07
-1.16783e-26
1.96002e-22
3.5222e-17
6.4876e-12
9.62622e-07
-1.16979e-26
1.954e-22
3.5187e-17
6.48383e-12
9.6233e-07
-1.17599e-26
1.93447e-22
3.50664e-17
6.47059e-12
9.61355e-07
-1.17704e-26
1.93102e-22
3.50464e-17
6.46847e-12
9.6119e-07
-1.17968e-26
1.92218e-22
3.49911e-17
6.4624e-12
9.60738e-07
-1.18007e-26
1.92086e-22
3.4983e-17
6.46152e-12
9.60668e-07
-1.18075e-26
1.91853e-22
3.49677e-17
6.45979e-12
9.60539e-07
-1.18075e-26
1.91853e-22
3.49677e-17
6.45979e-12
9.60539e-07
-1.18007e-26
1.92086e-22
3.4983e-17
6.46152e-12
9.60668e-07
-1.17968e-26
1.92218e-22
3.49911e-17
6.4624e-12
9.60738e-07
-1.17704e-26
1.93102e-22
3.50464e-17
6.46847e-12
9.6119e-07
-1.17599e-26
1.93447e-22
3.50664e-17
6.47059e-12
9.61355e-07
-1.16979e-26
1.954e-22
3.5187e-17
6.48383e-12
9.6233e-07
-1.16783e-26
1.96002e-22
3.5222e-17
6.4876e-12
9.62622e-07
-1.17026e-26
1.94034e-22
3.52866e-17
6.50781e-12
9.64036e-07
-1.1716e-26
1.93173e-22
3.52828e-17
6.51118e-12
9.64316e-07
-1.42893e-26
1.02305e-22
3.30408e-17
6.48653e-12
9.61663e-07
-1.42359e-26
1.19407e-22
3.7223e-17
7.03259e-12
9.59801e-07
-1.16648e-26
2.09801e-22
3.93961e-17
7.05335e-12
9.62493e-07
-1.16514e-26
2.1064e-22
3.93956e-17
7.04964e-12
9.62217e-07
-1.16277e-26
2.1246e-22
3.9305e-17
7.02752e-12
9.60819e-07
-1.16474e-26
2.11839e-22
3.92665e-17
7.02347e-12
9.60529e-07
-1.17097e-26
2.09814e-22
3.91327e-17
7.00919e-12
9.59563e-07
-1.17202e-26
2.09458e-22
3.91107e-17
7.00691e-12
9.59399e-07
-1.17467e-26
2.08542e-22
3.90494e-17
7.00037e-12
9.5895e-07
-1.17507e-26
2.08405e-22
3.90405e-17
6.99942e-12
9.58881e-07
-1.17575e-26
2.08162e-22
3.90234e-17
6.99755e-12
9.58753e-07
-1.17575e-26
2.08162e-22
3.90234e-17
6.99755e-12
9.58753e-07
-1.17507e-26
2.08405e-22
3.90405e-17
6.99942e-12
9.58881e-07
-1.17467e-26
2.08542e-22
3.90494e-17
7.00037e-12
9.5895e-07
-1.17202e-26
2.09458e-22
3.91107e-17
7.00691e-12
9.59399e-07
-1.17097e-26
2.09814e-22
3.91327e-17
7.00919e-12
9.59563e-07
-1.16474e-26
2.11839e-22
3.92665e-17
7.02347e-12
9.60529e-07
-1.16277e-26
2.1246e-22
3.9305e-17
7.02752e-12
9.60819e-07
-1.16514e-26
2.1064e-22
3.93955e-17
7.04964e-12
9.62217e-07
-1.16648e-26
2.09801e-22
3.93961e-17
7.05335e-12
9.62493e-07
-1.42359e-26
1.19407e-22
3.7223e-17
7.03259e-12
9.59801e-07
-1.41697e-26
1.39266e-22
4.17429e-17
7.57646e-12
9.5794e-07
-1.16013e-26
2.29111e-22
4.38409e-17
7.59335e-12
9.60671e-07
-1.15879e-26
2.29925e-22
4.38356e-17
7.58931e-12
9.60397e-07
-1.15649e-26
2.31573e-22
4.37172e-17
7.56531e-12
9.59016e-07
-1.15847e-26
2.3093e-22
4.36748e-17
7.56097e-12
9.58728e-07
-1.16474e-26
2.28821e-22
4.35268e-17
7.54568e-12
9.5777e-07
-1.16579e-26
2.28453e-22
4.35027e-17
7.54324e-12
9.57607e-07
-1.16846e-26
2.27499e-22
4.34349e-17
7.53623e-12
9.57163e-07
-1.16886e-26
2.27356e-22
4.34251e-17
7.53521e-12
9.57094e-07
-1.16954e-26
2.27103e-22
4.34061e-17
7.53321e-12
9.56967e-07
-1.16954e-26
2.27103e-22
4.34061e-17
7.53321e-12
9.56967e-07
-1.16886e-26
2.27356e-22
4.34251e-17
7.53521e-12
9.57094e-07
-1.16846e-26
2.27499e-22
4.34349e-17
7.53623e-12
9.57163e-07
-1.16579e-26
2.28453e-22
4.35027e-17
7.54324e-12
9.57607e-07
-1.16474e-26
2.28821e-22
4.35268e-17
7.54568e-12
9.5777e-07
-1.15847e-26
2.3093e-22
4.36748e-17
7.56097e-12
9.58728e-07
-1.15649e-26
2.31573e-22
4.37172e-17
7.56531e-12
9.59016e-07
-1.15879e-26
2.29925e-22
4.38356e-17
7.58931e-12
9.60397e-07
-1.16013e-26
2.2911e-22
4.38409e-17
7.59335e-12
9.60671e-07
-1.41697e-26
1.39266e-22
4.17429e-17
7.57646e-12
9.5794e-07
0.000354321
6.2941e-05
1.75198e-06
8.05784e-09
-2.57375e-12
5.33622e-14
6.33864e-14
6.36733e-14
6.37353e-14
6.37463e-14
6.37512e-14
6.37835e-14
6.39464e-14
6.41425e-14
6.57508e-14
6.7117e-14
8.14201e-14
8.91262e-14
2.84716e-13
3.32702e-13
0.000390206
7.0291e-05
2.0424e-06
1.04598e-08
1.40535e-13
5.32324e-14
6.33768e-14
6.36706e-14
6.3734e-14
6.37452e-14
6.37485e-14
6.37746e-14
6.39411e-14
6.41406e-14
6.57766e-14
6.71592e-14
8.16517e-14
8.94091e-14
2.87278e-13
3.35833e-13
0.000390433
7.03178e-05
2.04211e-06
1.04572e-08
1.43487e-13
5.32362e-14
6.33766e-14
6.36706e-14
6.37341e-14
6.37453e-14
6.37485e-14
6.37751e-14
6.39418e-14
6.41413e-14
6.5778e-14
6.71609e-14
8.16562e-14
8.94139e-14
2.87304e-13
3.35858e-13
0.000391114
7.03099e-05
2.03283e-06
1.03773e-08
1.10288e-13
5.32956e-14
6.33763e-14
6.36707e-14
6.37343e-14
6.37455e-14
6.3749e-14
6.37776e-14
6.39446e-14
6.41445e-14
6.57831e-14
6.71669e-14
8.16713e-14
8.94301e-14
2.87384e-13
3.35929e-13
0.000390784
7.02365e-05
2.02937e-06
1.03485e-08
7.64145e-14
5.32951e-14
6.33763e-14
6.36707e-14
6.37342e-14
6.37455e-14
6.3749e-14
6.37777e-14
6.39447e-14
6.41446e-14
6.57832e-14
6.71671e-14
8.16718e-14
8.94306e-14
2.87386e-13
3.3593e-13
0.000389833
6.99912e-05
2.0171e-06
1.02466e-08
-3.89937e-14
5.32958e-14
6.33763e-14
6.36707e-14
6.37342e-14
6.37455e-14
6.3749e-14
6.37778e-14
6.39449e-14
6.41447e-14
6.57835e-14
6.71674e-14
8.16726e-14
8.94313e-14
2.87389e-13
3.35932e-13
0.000389646
6.99499e-05
2.01522e-06
1.0231e-08
-5.8201e-14
5.32946e-14
6.33763e-14
6.36707e-14
6.37343e-14
6.37455e-14
6.37491e-14
6.37778e-14
6.39449e-14
6.41448e-14
6.57836e-14
6.71674e-14
8.16726e-14
8.94314e-14
2.87389e-13
3.35932e-13
0.000389201
6.98377e-05
2.00974e-06
1.01856e-08
-1.12286e-13
5.32917e-14
6.33764e-14
6.36707e-14
6.37343e-14
6.37455e-14
6.37491e-14
6.37779e-14
6.39449e-14
6.41448e-14
6.57836e-14
6.71675e-14
8.16727e-14
8.94314e-14
2.87389e-13
3.35932e-13
0.000389127
6.98214e-05
2.009e-06
1.01794e-08
-1.20049e-13
5.3291e-14
6.33764e-14
6.36707e-14
6.37343e-14
6.37455e-14
6.37491e-14
6.37779e-14
6.39449e-14
6.41448e-14
6.57836e-14
6.71675e-14
8.16727e-14
8.94314e-14
2.87389e-13
3.35932e-13
0.000389006
6.97907e-05
2.0075e-06
1.0167e-08
-1.35131e-13
5.32899e-14
6.33764e-14
6.36707e-14
6.37342e-14
6.37455e-14
6.3749e-14
6.37778e-14
6.39449e-14
6.41448e-14
6.57836e-14
6.71674e-14
8.16726e-14
8.94314e-14
2.87389e-13
3.35932e-13
0.000389006
6.97907e-05
2.0075e-06
1.0167e-08
-1.35131e-13
5.32899e-14
6.33764e-14
6.36707e-14
6.37342e-14
6.37455e-14
6.3749e-14
6.37778e-14
6.39449e-14
6.41448e-14
6.57836e-14
6.71674e-14
8.16726e-14
8.94314e-14
2.87389e-13
3.35932e-13
0.000389127
6.98214e-05
2.009e-06
1.01794e-08
-1.20049e-13
5.3291e-14
6.33764e-14
6.36707e-14
6.37343e-14
6.37455e-14
6.37491e-14
6.37779e-14
6.39449e-14
6.41448e-14
6.57836e-14
6.71675e-14
8.16727e-14
8.94314e-14
2.87389e-13
3.35932e-13
0.000389201
6.98377e-05
2.00974e-06
1.01856e-08
-1.12287e-13
5.32917e-14
6.33764e-14
6.36707e-14
6.37343e-14
6.37455e-14
6.37491e-14
6.37779e-14
6.39449e-14
6.41448e-14
6.57836e-14
6.71675e-14
8.16727e-14
8.94314e-14
2.87389e-13
3.35932e-13
0.000389646
6.99499e-05
2.01522e-06
1.0231e-08
-5.82009e-14
5.32946e-14
6.33763e-14
6.36707e-14
6.37343e-14
6.37455e-14
6.37491e-14
6.37778e-14
6.39449e-14
6.41448e-14
6.57836e-14
6.71674e-14
8.16726e-14
8.94314e-14
2.87389e-13
3.35932e-13
0.000389833
6.99912e-05
2.0171e-06
1.02466e-08
-3.89941e-14
5.32958e-14
6.33763e-14
6.36707e-14
6.37342e-14
6.37455e-14
6.3749e-14
6.37778e-14
6.39449e-14
6.41447e-14
6.57835e-14
6.71674e-14
8.16726e-14
8.94313e-14
2.87389e-13
3.35932e-13
0.000390784
7.02365e-05
2.02937e-06
1.03485e-08
7.64151e-14
5.32951e-14
6.33763e-14
6.36707e-14
6.37342e-14
6.37455e-14
6.3749e-14
6.37777e-14
6.39447e-14
6.41446e-14
6.57832e-14
6.71671e-14
8.16718e-14
8.94306e-14
2.87386e-13
3.3593e-13
0.000391114
7.03099e-05
2.03283e-06
1.03773e-08
1.10289e-13
5.32956e-14
6.33763e-14
6.36707e-14
6.37343e-14
6.37455e-14
6.3749e-14
6.37776e-14
6.39446e-14
6.41445e-14
6.57831e-14
6.71669e-14
8.16713e-14
8.94301e-14
2.87384e-13
3.35929e-13
0.000390433
7.03178e-05
2.04211e-06
1.04572e-08
1.43488e-13
5.32362e-14
6.33766e-14
6.36706e-14
6.37341e-14
6.37453e-14
6.37485e-14
6.37751e-14
6.39418e-14
6.41413e-14
6.5778e-14
6.71609e-14
8.16562e-14
8.94139e-14
2.87304e-13
3.35858e-13
0.000390206
7.0291e-05
2.0424e-06
1.04598e-08
1.40536e-13
5.32324e-14
6.33768e-14
6.36706e-14
6.3734e-14
6.37452e-14
6.37485e-14
6.37746e-14
6.39411e-14
6.41406e-14
6.57766e-14
6.71592e-14
8.16517e-14
8.94091e-14
2.87278e-13
3.35833e-13
0.000354321
6.2941e-05
1.75198e-06
8.05784e-09
-2.57375e-12
5.33622e-14
6.33864e-14
6.36733e-14
6.37353e-14
6.37463e-14
6.37512e-14
6.37835e-14
6.39464e-14
6.41425e-14
6.57508e-14
6.7117e-14
8.14201e-14
8.91262e-14
2.84716e-13
3.32702e-13
0.00686289
0.00170829
7.25978e-05
5.47602e-07
4.90491e-10
2.77925e-12
2.95915e-12
2.97439e-12
2.97769e-12
2.97829e-12
2.97853e-12
2.98009e-12
2.9879e-12
2.9972e-12
3.07335e-12
3.13749e-12
3.80852e-12
4.16609e-12
1.32279e-11
1.54033e-11
0.00737306
0.00185887
8.1527e-05
6.47859e-07
6.61405e-10
2.81556e-12
2.95864e-12
2.97425e-12