/*--------------------------------*- C++ -*----------------------------------*\
  =========                 |
  \\      /  F ield         | OpenFOAM: The Open Source CFD Toolbox
   \\    /   O peration     | Website:  https://openfoam.org
    \\  /    A nd           | Version:  8
     \\/     M anipulation  |
\*---------------------------------------------------------------------------*/
FoamFile
{
    version     2.0;
    format      ascii;
    class       volScalarField;
    location    "0.8";
    object      H2;
}
// * * * * * * * * * * * * * * * * * * * * * * * * * * * * * * * * * * * * * //

dimensions      [0 1 -1 0 0 0 0];

internalField   nonuniform List<scalar> 
180000
(
-2.67546e-36
-5.5184e-31
-1.06332e-25
-1.89405e-20
-3.09317e-15
-3.25374e-36
-6.68073e-31
-1.28093e-25
-2.26929e-20
-3.68407e-15
-3.26872e-36
-6.71105e-31
-1.28664e-25
-2.27922e-20
-3.69984e-15
-3.3138e-36
-6.80352e-31
-1.30434e-25
-2.31047e-20
-3.75036e-15
-3.31482e-36
-6.80572e-31
-1.30479e-25
-2.31131e-20
-3.7518e-15
-3.31635e-36
-6.80916e-31
-1.3055e-25
-2.3127e-20
-3.75427e-15
-3.31606e-36
-6.80863e-31
-1.30542e-25
-2.31257e-20
-3.75412e-15
-3.31568e-36
-6.80793e-31
-1.3053e-25
-2.3124e-20
-3.75391e-15
-3.31547e-36
-6.80754e-31
-1.30523e-25
-2.31229e-20
-3.75376e-15
-3.31532e-36
-6.80724e-31
-1.30518e-25
-2.31221e-20
-3.75363e-15
-3.31532e-36
-6.80724e-31
-1.30518e-25
-2.31221e-20
-3.75363e-15
-3.31547e-36
-6.80754e-31
-1.30523e-25
-2.31229e-20
-3.75376e-15
-3.31568e-36
-6.80793e-31
-1.3053e-25
-2.3124e-20
-3.75391e-15
-3.31606e-36
-6.80863e-31
-1.30542e-25
-2.31257e-20
-3.75412e-15
-3.31635e-36
-6.80916e-31
-1.3055e-25
-2.3127e-20
-3.75427e-15
-3.31482e-36
-6.80573e-31
-1.30479e-25
-2.31131e-20
-3.7518e-15
-3.3138e-36
-6.80352e-31
-1.30434e-25
-2.31047e-20
-3.75036e-15
-3.26872e-36
-6.71105e-31
-1.28664e-25
-2.27922e-20
-3.69984e-15
-3.25374e-36
-6.68073e-31
-1.28093e-25
-2.26929e-20
-3.68407e-15
-2.67546e-36
-5.5184e-31
-1.06332e-25
-1.89405e-20
-3.09317e-15
-2.69243e-36
-5.74459e-31
-1.36254e-25
-5.54985e-20
-5.74439e-14
-3.27211e-36
-6.9317e-31
-1.6169e-25
-6.42345e-20
-6.59382e-14
-3.28713e-36
-6.96264e-31
-1.62353e-25
-6.44564e-20
-6.61467e-14
-3.33229e-36
-7.05684e-31
-1.64399e-25
-6.51662e-20
-6.68488e-14
-3.33331e-36
-7.05908e-31
-1.64451e-25
-6.51852e-20
-6.68683e-14
-3.33483e-36
-7.06251e-31
-1.64528e-25
-6.52131e-20
-6.68996e-14
-3.33455e-36
-7.06198e-31
-1.64518e-25
-6.52107e-20
-6.68979e-14
-3.33416e-36
-7.06126e-31
-1.64505e-25
-6.52069e-20
-6.68952e-14
-3.33396e-36
-7.06087e-31
-1.64497e-25
-6.52047e-20
-6.68934e-14
-3.3338e-36
-7.06056e-31
-1.64491e-25
-6.52031e-20
-6.6892e-14
-3.3338e-36
-7.06056e-31
-1.64491e-25
-6.52031e-20
-6.6892e-14
-3.33396e-36
-7.06087e-31
-1.64497e-25
-6.52047e-20
-6.68934e-14
-3.33416e-36
-7.06126e-31
-1.64505e-25
-6.52069e-20
-6.68952e-14
-3.33455e-36
-7.06198e-31
-1.64518e-25
-6.52107e-20
-6.68979e-14
-3.33483e-36
-7.06251e-31
-1.64528e-25
-6.52131e-20
-6.68996e-14
-3.33331e-36
-7.05908e-31
-1.64451e-25
-6.51852e-20
-6.68683e-14
-3.33229e-36
-7.05684e-31
-1.64399e-25
-6.51662e-20
-6.68488e-14
-3.28713e-36
-6.96264e-31
-1.62353e-25
-6.44564e-20
-6.61467e-14
-3.27211e-36
-6.9317e-31
-1.6169e-25
-6.42345e-20
-6.59382e-14
-2.69243e-36
-5.74459e-31
-1.36254e-25
-5.54985e-20
-5.74439e-14
-3.65517e-36
-1.69496e-30
-1.56287e-24
-1.75029e-18
-2.51236e-12
-4.3071e-36
-1.91205e-30
-1.72923e-24
-1.94745e-18
-2.81399e-12
-4.32382e-36
-1.91742e-30
-1.73313e-24
-1.95195e-18
-2.8208e-12
-4.37308e-36
-1.93326e-30
-1.74521e-24
-1.96708e-18
-2.84484e-12
-4.37417e-36
-1.93362e-30
-1.74551e-24
-1.96746e-18
-2.84549e-12
-4.37542e-36
-1.93385e-30
-1.74568e-24
-1.96793e-18
-2.8465e-12
-4.3751e-36
-1.93376e-30
-1.74563e-24
-1.96789e-18
-2.84644e-12
-4.37464e-36
-1.93361e-30
-1.74553e-24
-1.9678e-18
-2.84635e-12
-4.37443e-36
-1.93355e-30
-1.7455e-24
-1.96776e-18
-2.84629e-12
-4.37427e-36
-1.93351e-30
-1.74547e-24
-1.96773e-18
-2.84624e-12
-4.37427e-36
-1.93351e-30
-1.74547e-24
-1.96773e-18
-2.84624e-12
-4.37443e-36
-1.93355e-30
-1.7455e-24
-1.96776e-18
-2.84629e-12
-4.37464e-36
-1.93361e-30
-1.74553e-24
-1.9678e-18
-2.84635e-12
-4.3751e-36
-1.93376e-30
-1.74563e-24
-1.96789e-18
-2.84644e-12
-4.37542e-36
-1.93385e-30
-1.74568e-24
-1.96793e-18
-2.8465e-12
-4.37417e-36
-1.93362e-30
-1.74551e-24
-1.96746e-18
-2.84549e-12
-4.37308e-36
-1.93326e-30
-1.74521e-24
-1.96708e-18
-2.84484e-12
-4.32382e-36
-1.91743e-30
-1.73313e-24
-1.95195e-18
-2.8208e-12
-4.3071e-36
-1.91205e-30
-1.72923e-24
-1.94745e-18
-2.81399e-12
-3.65517e-36
-1.69496e-30
-1.56287e-24
-1.75029e-18
-2.51236e-12
-2.47539e-35
-2.53183e-29
-3.05296e-23
-3.48146e-17
-4.85235e-11
-2.65089e-35
-2.70471e-29
-3.28415e-23
-3.78381e-17
-5.30916e-11
-2.65504e-35
-2.70857e-29
-3.28919e-23
-3.79033e-17
-5.31888e-11
-2.66504e-35
-2.71898e-29
-3.30469e-23
-3.81259e-17
-5.35426e-11
-2.6652e-35
-2.71918e-29
-3.30504e-23
-3.81315e-17
-5.35518e-11
-2.66455e-35
-2.71874e-29
-3.30497e-23
-3.8137e-17
-5.3566e-11
-2.66447e-35
-2.71868e-29
-3.30491e-23
-3.81363e-17
-5.35652e-11
-2.66427e-35
-2.71851e-29
-3.30474e-23
-3.81348e-17
-5.35636e-11
-2.66424e-35
-2.71849e-29
-3.30471e-23
-3.81343e-17
-5.35628e-11
-2.66422e-35
-2.71847e-29
-3.30468e-23
-3.81338e-17
-5.35621e-11
-2.66422e-35
-2.71847e-29
-3.30468e-23
-3.81338e-17
-5.35621e-11
-2.66424e-35
-2.71849e-29
-3.30471e-23
-3.81343e-17
-5.35628e-11
-2.66427e-35
-2.71851e-29
-3.30474e-23
-3.81348e-17
-5.35636e-11
-2.66447e-35
-2.71868e-29
-3.30491e-23
-3.81363e-17
-5.35652e-11
-2.66455e-35
-2.71874e-29
-3.30497e-23
-3.8137e-17
-5.3566e-11
-2.6652e-35
-2.71918e-29
-3.30504e-23
-3.81315e-17
-5.35518e-11
-2.66504e-35
-2.71898e-29
-3.30469e-23
-3.81259e-17
-5.35426e-11
-2.65504e-35
-2.70857e-29
-3.28919e-23
-3.79033e-17
-5.31888e-11
-2.65089e-35
-2.70471e-29
-3.28415e-23
-3.78381e-17
-5.30916e-11
-2.47539e-35
-2.53183e-29
-3.05296e-23
-3.48146e-17
-4.85235e-11
-2.84181e-34
-3.01462e-28
-3.51953e-22
-3.81462e-16
-5.03318e-10
-2.93551e-34
-3.14236e-28
-3.6997e-22
-4.04892e-16
-5.37241e-10
-2.93763e-34
-3.14512e-28
-3.70349e-22
-4.05378e-16
-5.3793e-10
-2.9403e-34
-3.15125e-28
-3.71441e-22
-4.07022e-16
-5.40483e-10
-2.94027e-34
-3.15134e-28
-3.71463e-22
-4.07063e-16
-5.4055e-10
-2.93905e-34
-3.15053e-28
-3.71424e-22
-4.07086e-16
-5.40643e-10
-2.939e-34
-3.15048e-28
-3.71419e-22
-4.07081e-16
-5.40638e-10
-2.93882e-34
-3.15031e-28
-3.71403e-22
-4.07068e-16
-5.40626e-10
-2.93882e-34
-3.1503e-28
-3.71401e-22
-4.07064e-16
-5.40621e-10
-2.93883e-34
-3.1503e-28
-3.714e-22
-4.07061e-16
-5.40616e-10
-2.93883e-34
-3.1503e-28
-3.714e-22
-4.07061e-16
-5.40616e-10
-2.93882e-34
-3.1503e-28
-3.71401e-22
-4.07064e-16
-5.40621e-10
-2.93882e-34
-3.15031e-28
-3.71403e-22
-4.07068e-16
-5.40626e-10
-2.939e-34
-3.15048e-28
-3.71419e-22
-4.07081e-16
-5.40638e-10
-2.93905e-34
-3.15053e-28
-3.71424e-22
-4.07086e-16
-5.40643e-10
-2.94027e-34
-3.15134e-28
-3.71463e-22
-4.07063e-16
-5.4055e-10
-2.9403e-34
-3.15125e-28
-3.71441e-22
-4.07022e-16
-5.40483e-10
-2.93763e-34
-3.14512e-28
-3.70349e-22
-4.05378e-16
-5.3793e-10
-2.93551e-34
-3.14236e-28
-3.6997e-22
-4.04892e-16
-5.37241e-10
-2.84181e-34
-3.01462e-28
-3.51953e-22
-3.81462e-16
-5.03318e-10
-2.32233e-33
-2.33408e-27
-2.55954e-21
-2.58442e-15
-3.15954e-09
-2.34486e-33
-2.37863e-27
-2.62773e-21
-2.67509e-15
-3.28236e-09
-2.34545e-33
-2.37962e-27
-2.62916e-21
-2.67692e-15
-3.28475e-09
-2.34361e-33
-2.38027e-27
-2.63227e-21
-2.68272e-15
-3.29361e-09
-2.34349e-33
-2.38024e-27
-2.63233e-21
-2.68287e-15
-3.29386e-09
-2.34233e-33
-2.37944e-27
-2.63182e-21
-2.68278e-15
-3.2941e-09
-2.34231e-33
-2.37942e-27
-2.6318e-21
-2.68276e-15
-3.29409e-09
-2.34218e-33
-2.37931e-27
-2.63171e-21
-2.68269e-15
-3.29405e-09
-2.3422e-33
-2.37932e-27
-2.63171e-21
-2.68269e-15
-3.29403e-09
-2.34222e-33
-2.37933e-27
-2.63171e-21
-2.68268e-15
-3.29402e-09
-2.34222e-33
-2.37933e-27
-2.63171e-21
-2.68268e-15
-3.29402e-09
-2.3422e-33
-2.37932e-27
-2.63171e-21
-2.68269e-15
-3.29403e-09
-2.34218e-33
-2.37931e-27
-2.63171e-21
-2.68269e-15
-3.29405e-09
-2.34231e-33
-2.37942e-27
-2.6318e-21
-2.68276e-15
-3.29409e-09
-2.34233e-33
-2.37944e-27
-2.63182e-21
-2.68278e-15
-3.2941e-09
-2.34349e-33
-2.38024e-27
-2.63233e-21
-2.68287e-15
-3.29386e-09
-2.34361e-33
-2.38027e-27
-2.63227e-21
-2.68272e-15
-3.29361e-09
-2.34545e-33
-2.37962e-27
-2.62916e-21
-2.67692e-15
-3.28475e-09
-2.34486e-33
-2.37863e-27
-2.62773e-21
-2.67509e-15
-3.28236e-09
-2.32233e-33
-2.33408e-27
-2.55954e-21
-2.58442e-15
-3.15954e-09
-1.33246e-32
-1.24183e-26
-1.25299e-20
-1.14887e-14
-1.25793e-08
-1.31624e-32
-1.23641e-26
-1.25421e-20
-1.1562e-14
-1.26545e-08
-1.31601e-32
-1.23637e-26
-1.25427e-20
-1.15634e-14
-1.26556e-08
-1.31289e-32
-1.2346e-26
-1.25341e-20
-1.15642e-14
-1.26591e-08
-1.31278e-32
-1.23453e-26
-1.25338e-20
-1.15643e-14
-1.26593e-08
-1.31203e-32
-1.23402e-26
-1.25303e-20
-1.15627e-14
-1.26587e-08
-1.31202e-32
-1.23402e-26
-1.25303e-20
-1.15627e-14
-1.26588e-08
-1.31196e-32
-1.23397e-26
-1.253e-20
-1.15626e-14
-1.26588e-08
-1.31198e-32
-1.23398e-26
-1.25301e-20
-1.15626e-14
-1.26588e-08
-1.312e-32
-1.23399e-26
-1.25301e-20
-1.15626e-14
-1.26589e-08
-1.312e-32
-1.23399e-26
-1.25301e-20
-1.15626e-14
-1.26589e-08
-1.31198e-32
-1.23398e-26
-1.25301e-20
-1.15626e-14
-1.26588e-08
-1.31196e-32
-1.23397e-26
-1.253e-20
-1.15626e-14
-1.26588e-08
-1.31202e-32
-1.23402e-26
-1.25303e-20
-1.15627e-14
-1.26588e-08
-1.31203e-32
-1.23402e-26
-1.25303e-20
-1.15627e-14
-1.26587e-08
-1.31278e-32
-1.23453e-26
-1.25338e-20
-1.15643e-14
-1.26593e-08
-1.31289e-32
-1.2346e-26
-1.25341e-20
-1.15642e-14
-1.26591e-08
-1.31601e-32
-1.23637e-26
-1.25427e-20
-1.15634e-14
-1.26556e-08
-1.31624e-32
-1.23641e-26
-1.25421e-20
-1.1562e-14
-1.26545e-08
-1.33246e-32
-1.24183e-26
-1.25299e-20
-1.14887e-14
-1.25793e-08
-5.55041e-32
-4.68278e-26
-4.20652e-20
-3.33271e-14
-3.01562e-08
-5.35958e-32
-4.54548e-26
-4.08842e-20
-3.23477e-14
-2.88972e-08
-5.35635e-32
-4.5431e-26
-4.08626e-20
-3.23288e-14
-2.88715e-08
-5.33488e-32
-4.52817e-26
-4.07454e-20
-3.22429e-14
-2.8772e-08
-5.33424e-32
-4.52776e-26
-4.07425e-20
-3.22411e-14
-2.87701e-08
-5.33079e-32
-4.52547e-26
-4.07267e-20
-3.22324e-14
-2.87634e-08
-5.33082e-32
-4.5255e-26
-4.07272e-20
-3.22329e-14
-2.87641e-08
-5.33062e-32
-4.52537e-26
-4.07266e-20
-3.22328e-14
-2.87646e-08
-5.33073e-32
-4.52545e-26
-4.07272e-20
-3.22333e-14
-2.87651e-08
-5.33083e-32
-4.52551e-26
-4.07277e-20
-3.22336e-14
-2.87655e-08
-5.33083e-32
-4.52551e-26
-4.07277e-20
-3.22336e-14
-2.87655e-08
-5.33073e-32
-4.52545e-26
-4.07272e-20
-3.22333e-14
-2.87651e-08
-5.33062e-32
-4.52537e-26
-4.07266e-20
-3.22328e-14
-2.87646e-08
-5.33082e-32
-4.5255e-26
-4.07272e-20
-3.22329e-14
-2.87641e-08
-5.33079e-32
-4.52547e-26
-4.07267e-20
-3.22324e-14
-2.87634e-08
-5.33424e-32
-4.52776e-26
-4.07425e-20
-3.22411e-14
-2.87701e-08
-5.33488e-32
-4.52817e-26
-4.07454e-20
-3.22429e-14
-2.8772e-08
-5.35635e-32
-4.5431e-26
-4.08626e-20
-3.23288e-14
-2.88715e-08
-5.35958e-32
-4.54548e-26
-4.08842e-20
-3.23477e-14
-2.88972e-08
-5.55041e-32
-4.68278e-26
-4.20652e-20
-3.33271e-14
-3.01562e-08
-1.68782e-31
-1.23101e-25
-9.09825e-20
-5.29298e-14
-2.48111e-08
-1.58892e-31
-1.15797e-25
-8.46799e-20
-4.76985e-14
-1.89953e-08
-1.58719e-31
-1.15665e-25
-8.45616e-20
-4.75969e-14
-1.88802e-08
-1.57792e-31
-1.15017e-25
-8.40423e-20
-4.71932e-14
-1.84447e-08
-1.57767e-31
-1.15001e-25
-8.40304e-20
-4.71847e-14
-1.84355e-08
-1.57652e-31
-1.1493e-25
-8.39846e-20
-4.71583e-14
-1.84128e-08
-1.57654e-31
-1.14933e-25
-8.3987e-20
-4.71605e-14
-1.84151e-08
-1.57651e-31
-1.14931e-25
-8.39874e-20
-4.7162e-14
-1.84175e-08
-1.57655e-31
-1.14934e-25
-8.39899e-20
-4.71638e-14
-1.84194e-08
-1.57659e-31
-1.14937e-25
-8.39919e-20
-4.71652e-14
-1.84208e-08
-1.57659e-31
-1.14937e-25
-8.39919e-20
-4.71652e-14
-1.84208e-08
-1.57655e-31
-1.14934e-25
-8.39899e-20
-4.71638e-14
-1.84194e-08
-1.57651e-31
-1.14931e-25
-8.39874e-20
-4.7162e-14
-1.84175e-08
-1.57654e-31
-1.14933e-25
-8.3987e-20
-4.71605e-14
-1.84151e-08
-1.57652e-31
-1.1493e-25
-8.39846e-20
-4.71583e-14
-1.84128e-08
-1.57767e-31
-1.15001e-25
-8.40304e-20
-4.71847e-14
-1.84355e-08
-1.57792e-31
-1.15017e-25
-8.40423e-20
-4.71932e-14
-1.84447e-08
-1.58719e-31
-1.15665e-25
-8.45616e-20
-4.75969e-14
-1.88802e-08
-1.58892e-31
-1.15797e-25
-8.46799e-20
-4.76985e-14
-1.89953e-08
-1.68782e-31
-1.23101e-25
-9.09825e-20
-5.29298e-14
-2.48111e-08
-3.5666e-31
-1.96181e-25
-7.9914e-20
2.08644e-14
1.09001e-07
-3.24369e-31
-1.74114e-25
-6.27789e-20
3.34696e-14
1.20343e-07
-3.2379e-31
-1.73703e-25
-6.2448e-20
3.37204e-14
1.20569e-07
-3.21081e-31
-1.7196e-25
-6.11779e-20
3.46203e-14
1.21377e-07
-3.21015e-31
-1.71921e-25
-6.11516e-20
3.46384e-14
1.21394e-07
-3.20746e-31
-1.71781e-25
-6.10776e-20
3.46753e-14
1.21423e-07
-3.20757e-31
-1.71789e-25
-6.10851e-20
3.46697e-14
1.21419e-07
-3.20756e-31
-1.71793e-25
-6.10919e-20
3.46629e-14
1.21413e-07
-3.20769e-31
-1.71801e-25
-6.10978e-20
3.46589e-14
1.2141e-07
-3.2078e-31
-1.71808e-25
-6.11024e-20
3.46559e-14
1.21407e-07
-3.2078e-31
-1.71808e-25
-6.11024e-20
3.46559e-14
1.21407e-07
-3.20769e-31
-1.71801e-25
-6.10978e-20
3.46589e-14
1.2141e-07
-3.20756e-31
-1.71793e-25
-6.10919e-20
3.46629e-14
1.21413e-07
-3.20757e-31
-1.71789e-25
-6.10851e-20
3.46697e-14
1.21419e-07
-3.20746e-31
-1.71781e-25
-6.10776e-20
3.46753e-14
1.21423e-07
-3.21015e-31
-1.71921e-25
-6.11516e-20
3.46384e-14
1.21394e-07
-3.21081e-31
-1.7196e-25
-6.11779e-20
3.46203e-14
1.21377e-07
-3.2379e-31
-1.73703e-25
-6.2448e-20
3.37204e-14
1.20569e-07
-3.24369e-31
-1.74114e-25
-6.27789e-20
3.34696e-14
1.20343e-07
-3.5666e-31
-1.96181e-25
-7.9914e-20
2.08644e-14
1.09001e-07
-6.00361e-31
-2.33295e-25
-2.02073e-20
8.62162e-14
1.02291e-07
-5.18547e-31
-1.82769e-25
1.389e-20
1.06355e-13
1.13675e-07
-5.17055e-31
-1.81811e-25
1.45576e-20
1.06758e-13
1.13903e-07
-5.10688e-31
-1.78079e-25
1.69707e-20
1.08171e-13
1.14715e-07
-5.10544e-31
-1.78001e-25
1.70182e-20
1.08199e-13
1.14732e-07
-5.10029e-31
-1.7777e-25
1.71247e-20
1.08249e-13
1.14763e-07
-5.1006e-31
-1.77792e-25
1.7109e-20
1.0824e-13
1.14759e-07
-5.10077e-31
-1.77811e-25
1.70909e-20
1.08228e-13
1.14753e-07
-5.10108e-31
-1.77829e-25
1.70798e-20
1.08222e-13
1.14749e-07
-5.10134e-31
-1.77843e-25
1.70712e-20
1.08217e-13
1.14747e-07
-5.10134e-31
-1.77843e-25
1.70712e-20
1.08217e-13
1.14747e-07
-5.10108e-31
-1.77829e-25
1.70798e-20
1.08222e-13
1.14749e-07
-5.10077e-31
-1.77811e-25
1.70909e-20
1.08228e-13
1.14753e-07
-5.1006e-31
-1.77792e-25
1.7109e-20
1.0824e-13
1.14759e-07
-5.10029e-31
-1.7777e-25
1.71247e-20
1.08249e-13
1.14763e-07
-5.10544e-31
-1.78001e-25
1.70182e-20
1.08199e-13
1.14732e-07
-5.10688e-31
-1.78079e-25
1.69707e-20
1.08171e-13
1.14715e-07
-5.17055e-31
-1.81811e-25
1.45576e-20
1.06758e-13
1.13903e-07
-5.18547e-31
-1.82769e-25
1.389e-20
1.06355e-13
1.13675e-07
-6.00361e-31
-2.33295e-25
-2.02073e-20
8.62162e-14
1.02291e-07
-8.73793e-31
-2.14305e-25
7.66544e-20
1.43174e-13
9.57098e-08
-6.9703e-31
-1.16099e-25
1.34267e-19
1.71002e-13
1.07135e-07
-6.93765e-31
-1.14216e-25
1.35403e-19
1.7156e-13
1.07363e-07
-6.80695e-31
-1.07244e-25
1.39393e-19
1.73502e-13
1.0818e-07
-6.80417e-31
-1.07105e-25
1.39469e-19
1.7354e-13
1.08197e-07
-6.79531e-31
-1.06753e-25
1.39619e-19
1.73606e-13
1.08229e-07
-6.79606e-31
-1.06797e-25
1.39592e-19
1.73594e-13
1.08225e-07
-6.79668e-31
-1.06846e-25
1.39558e-19
1.73577e-13
1.08219e-07
-6.79732e-31
-1.06879e-25
1.39539e-19
1.73569e-13
1.08215e-07
-6.79784e-31
-1.06905e-25
1.39525e-19
1.73562e-13
1.08213e-07
-6.79784e-31
-1.06905e-25
1.39525e-19
1.73562e-13
1.08213e-07
-6.79732e-31
-1.06879e-25
1.39539e-19
1.73569e-13
1.08215e-07
-6.79668e-31
-1.06846e-25
1.39558e-19
1.73577e-13
1.08219e-07
-6.79606e-31
-1.06797e-25
1.39592e-19
1.73594e-13
1.08225e-07
-6.79531e-31
-1.06753e-25
1.39619e-19
1.73606e-13
1.08229e-07
-6.80417e-31
-1.07105e-25
1.39469e-19
1.7354e-13
1.08197e-07
-6.80695e-31
-1.07244e-25
1.39393e-19
1.73502e-13
1.0818e-07
-6.93765e-31
-1.14216e-25
1.35403e-19
1.7156e-13
1.07363e-07
-6.9703e-31
-1.16099e-25
1.34267e-19
1.71002e-13
1.07135e-07
-8.73793e-31
-2.14305e-25
7.66544e-20
1.43174e-13
9.57098e-08
-1.15961e-30
-1.32266e-25
1.98875e-19
1.91639e-13
8.91601e-08
-8.1738e-31
3.90643e-26
2.8699e-19
2.27312e-13
1.00624e-07
-8.11005e-31
4.23724e-26
2.88734e-19
2.28028e-13
1.00853e-07
-7.86557e-31
5.42573e-26
2.94774e-19
2.30514e-13
1.01674e-07
-7.86058e-31
5.44867e-26
2.94888e-19
2.30563e-13
1.01691e-07
-7.84626e-31
5.5007e-26
2.95096e-19
2.30648e-13
1.01725e-07
-7.84778e-31
5.49266e-26
2.95054e-19
2.30631e-13
1.0172e-07
-7.84929e-31
5.4832e-26
2.95e-19
2.3061e-13
1.01714e-07
-7.8505e-31
5.47753e-26
2.94972e-19
2.30599e-13
1.01711e-07
-7.85148e-31
5.47305e-26
2.94951e-19
2.3059e-13
1.01708e-07
-7.85148e-31
5.47305e-26
2.94951e-19
2.3059e-13
1.01708e-07
-7.8505e-31
5.47753e-26
2.94972e-19
2.30599e-13
1.01711e-07
-7.84929e-31
5.4832e-26
2.95e-19
2.3061e-13
1.01714e-07
-7.84778e-31
5.49266e-26
2.95054e-19
2.30631e-13
1.0172e-07
-7.84626e-31
5.5007e-26
2.95096e-19
2.30648e-13
1.01725e-07
-7.86058e-31
5.44867e-26
2.94888e-19
2.30563e-13
1.01691e-07
-7.86557e-31
5.42573e-26
2.94774e-19
2.30514e-13
1.01674e-07
-8.11005e-31
4.23724e-26
2.88734e-19
2.28028e-13
1.00853e-07
-8.1738e-31
3.90643e-26
2.8699e-19
2.27312e-13
1.00624e-07
-1.15961e-30
-1.32266e-25
1.98875e-19
1.91639e-13
8.91601e-08
-1.46644e-30
5.99866e-27
3.34348e-19
2.31517e-13
8.26377e-08
-8.55076e-31
2.82861e-25
4.604e-19
2.75192e-13
9.41401e-08
-8.43627e-31
2.88228e-25
4.62899e-19
2.76069e-13
9.43693e-08
-8.00938e-31
3.07177e-25
4.71499e-19
2.79112e-13
9.51942e-08
-8.00094e-31
3.07536e-25
4.71661e-19
2.79172e-13
9.52113e-08
-7.97847e-31
3.08296e-25
4.71949e-19
2.79277e-13
9.52456e-08
-7.98128e-31
3.08163e-25
4.71888e-19
2.79257e-13
9.52408e-08
-7.98433e-31
3.08001e-25
4.7181e-19
2.79231e-13
9.52349e-08
-7.98645e-31
3.07911e-25
4.7177e-19
2.79218e-13
9.52314e-08
-7.98816e-31
3.07839e-25
4.71739e-19
2.79207e-13
9.52287e-08
-7.98816e-31
3.07839e-25
4.71739e-19
2.79207e-13
9.52287e-08
-7.98645e-31
3.07911e-25
4.7177e-19
2.79218e-13
9.52314e-08
-7.98433e-31
3.08001e-25
4.7181e-19
2.79231e-13
9.52349e-08
-7.98128e-31
3.08163e-25
4.71888e-19
2.79257e-13
9.52408e-08
-7.97847e-31
3.08296e-25
4.71949e-19
2.79277e-13
9.52456e-08
-8.00094e-31
3.07536e-25
4.71661e-19
2.79172e-13
9.52113e-08
-8.00938e-31
3.07177e-25
4.71499e-19
2.79112e-13
9.51942e-08
-8.43627e-31
2.88228e-25
4.62899e-19
2.76069e-13
9.43693e-08
-8.55076e-31
2.82861e-25
4.604e-19
2.75192e-13
9.414e-08
-1.46644e-30
5.99864e-27
3.34348e-19
2.31517e-13
8.26377e-08
-1.84747e-30
1.79311e-25
4.70661e-19
2.62722e-13
7.61388e-08
-8.20627e-31
6.01853e-25
6.42542e-19
3.14554e-13
8.76788e-08
-8.01347e-31
6.10056e-25
6.45949e-19
3.15593e-13
8.79085e-08
-7.30712e-31
6.3876e-25
6.57659e-19
3.19206e-13
8.87363e-08
-7.29346e-31
6.39297e-25
6.57878e-19
3.19277e-13
8.87534e-08
-7.25884e-31
6.40398e-25
6.58271e-19
3.19405e-13
8.87885e-08
-7.26367e-31
6.40194e-25
6.58188e-19
3.19382e-13
8.87836e-08
-7.26916e-31
6.3994e-25
6.58081e-19
3.19351e-13
8.87777e-08
-7.27268e-31
6.39801e-25
6.58026e-19
3.19334e-13
8.87742e-08
-7.27554e-31
6.39692e-25
6.57984e-19
3.19322e-13
8.87714e-08
-7.27554e-31
6.39692e-25
6.57984e-19
3.19322e-13
8.87714e-08
-7.27268e-31
6.39801e-25
6.58026e-19
3.19334e-13
8.87742e-08
-7.26916e-31
6.3994e-25
6.58081e-19
3.19351e-13
8.87777e-08
-7.26367e-31
6.40194e-25
6.58188e-19
3.19382e-13
8.87836e-08
-7.25884e-31
6.40398e-25
6.58271e-19
3.19405e-13
8.87885e-08
-7.29346e-31
6.39297e-25
6.57878e-19
3.19277e-13
8.87534e-08
-7.30712e-31
6.3876e-25
6.57659e-19
3.19206e-13
8.87363e-08
-8.01347e-31
6.10056e-25
6.45949e-19
3.15592e-13
8.79085e-08
-8.20627e-31
6.01853e-25
6.42542e-19
3.14553e-13
8.76787e-08
-1.84747e-30
1.79311e-25
4.70661e-19
2.62722e-13
7.61388e-08
-2.4203e-30
3.5152e-25
5.95097e-19
2.8517e-13
6.96601e-08
-7.77947e-31
9.68454e-25
8.21172e-19
3.45313e-13
8.12369e-08
-7.47099e-31
9.80428e-25
8.25648e-19
3.46517e-13
8.14671e-08
-6.35226e-31
1.02217e-24
8.41047e-19
3.50712e-13
8.22972e-08
-6.33094e-31
1.02294e-24
8.41336e-19
3.50794e-13
8.23143e-08
-6.27831e-31
1.02452e-24
8.41862e-19
3.50947e-13
8.23501e-08
-6.28615e-31
1.02422e-24
8.41753e-19
3.50919e-13
8.23451e-08
-6.29527e-31
1.02385e-24
8.41612e-19
3.50883e-13
8.23391e-08
-6.30091e-31
1.02365e-24
8.4154e-19
3.50865e-13
8.23355e-08
-6.30547e-31
1.02349e-24
8.41484e-19
3.5085e-13
8.23327e-08
-6.30547e-31
1.02349e-24
8.41484e-19
3.5085e-13
8.23327e-08
-6.30091e-31
1.02365e-24
8.4154e-19
3.50865e-13
8.23355e-08
-6.29527e-31
1.02385e-24
8.41612e-19
3.50883e-13
8.23391e-08
-6.28615e-31
1.02422e-24
8.41753e-19
3.50919e-13
8.23451e-08
-6.27831e-31
1.02452e-24
8.41862e-19
3.50947e-13
8.23501e-08
-6.33094e-31
1.02294e-24
8.41336e-19
3.50794e-13
8.23143e-08
-6.35226e-31
1.02217e-24
8.41047e-19
3.50712e-13
8.22972e-08
-7.471e-31
9.80428e-25
8.25648e-19
3.46516e-13
8.14671e-08
-7.77948e-31
9.68453e-25
8.21172e-19
3.45312e-13
8.12368e-08
-2.4203e-30
3.5152e-25
5.95097e-19
2.8517e-13
6.96601e-08
-3.38844e-30
4.70868e-25
6.94641e-19
2.98784e-13
6.31985e-08
-8.64094e-31
1.34035e-24
9.83758e-19
3.67392e-13
7.48114e-08
-8.16754e-31
1.35719e-24
9.89469e-19
3.68763e-13
7.5042e-08
-6.45925e-31
1.41589e-24
1.00917e-18
3.73551e-13
7.58739e-08
-6.42703e-31
1.41698e-24
1.00954e-18
3.73644e-13
7.58909e-08
-6.34803e-31
1.41922e-24
1.01023e-18
3.73823e-13
7.59272e-08
-6.36022e-31
1.41879e-24
1.01009e-18
3.73791e-13
7.59222e-08
-6.37457e-31
1.41826e-24
1.00991e-18
3.73751e-13
7.59161e-08
-6.38326e-31
1.41798e-24
1.00982e-18
3.73729e-13
7.59125e-08
-6.39032e-31
1.41775e-24
1.00975e-18
3.73712e-13
7.59096e-08
-6.39032e-31
1.41775e-24
1.00975e-18
3.73712e-13
7.59096e-08
-6.38326e-31
1.41798e-24
1.00982e-18
3.73729e-13
7.59125e-08
-6.37457e-31
1.41826e-24
1.00991e-18
3.73751e-13
7.59161e-08
-6.36022e-31
1.41879e-24
1.01009e-18
3.73791e-13
7.59222e-08
-6.34803e-31
1.41922e-24
1.01023e-18
3.73823e-13
7.59272e-08
-6.42703e-31
1.41698e-24
1.00954e-18
3.73644e-13
7.58909e-08
-6.45925e-31
1.41589e-24
1.00917e-18
3.73551e-13
7.58739e-08
-8.16756e-31
1.35719e-24
9.89469e-19
3.68763e-13
7.5042e-08
-8.64097e-31
1.34034e-24
9.83757e-19
3.67392e-13
7.48114e-08
-3.38844e-30
4.70868e-25
6.94641e-19
2.98784e-13
6.31985e-08
-5.06436e-30
4.69331e-25
7.55976e-19
3.03496e-13
5.6751e-08
-1.31048e-30
1.65986e-24
1.11748e-18
3.80722e-13
6.83993e-08
-1.24031e-30
1.68286e-24
1.1246e-18
3.82261e-13
6.86303e-08
-9.87458e-31
1.76314e-24
1.14924e-18
3.8765e-13
6.94633e-08
-9.82725e-31
1.76462e-24
1.1497e-18
3.87755e-13
6.94802e-08
-9.7104e-31
1.76775e-24
1.1506e-18
3.87961e-13
6.9517e-08
-9.72869e-31
1.76716e-24
1.15043e-18
3.87925e-13
6.95119e-08
-9.75032e-31
1.76643e-24
1.1502e-18
3.87879e-13
6.95057e-08
-9.76335e-31
1.76604e-24
1.15009e-18
3.87854e-13
6.9502e-08
-9.77396e-31
1.76572e-24
1.14999e-18
3.87835e-13
6.94991e-08
-9.77396e-31
1.76572e-24
1.14999e-18
3.87835e-13
6.94991e-08
-9.76335e-31
1.76604e-24
1.15009e-18
3.87854e-13
6.9502e-08
-9.75032e-31
1.76643e-24
1.1502e-18
3.87879e-13
6.95057e-08
-9.72869e-31
1.76716e-24
1.15043e-18
3.87925e-13
6.95119e-08
-9.7104e-31
1.76775e-24
1.1506e-18
3.87961e-13
6.9517e-08
-9.82725e-31
1.76462e-24
1.1497e-18
3.87755e-13
6.94802e-08
-9.87459e-31
1.76314e-24
1.14924e-18
3.8765e-13
6.94633e-08
-1.24031e-30
1.68286e-24
1.1246e-18
3.82261e-13
6.86303e-08
-1.31049e-30
1.65986e-24
1.11748e-18
3.80721e-13
6.83993e-08
-5.06436e-30
4.69331e-25
7.55976e-19
3.03496e-13
5.6751e-08
-7.89438e-30
2.61927e-25
7.65491e-19
2.9924e-13
5.03144e-08
-2.46571e-30
1.85336e-24
1.20925e-18
3.85235e-13
6.19973e-08
-2.36469e-30
1.88398e-24
1.21795e-18
3.86945e-13
6.22286e-08
-2.0004e-30
1.99119e-24
1.2482e-18
3.92942e-13
6.30621e-08
-1.99362e-30
1.99316e-24
1.24876e-18
3.93058e-13
6.30789e-08
-1.97661e-30
1.99745e-24
1.24991e-18
3.93293e-13
6.31161e-08
-1.97928e-30
1.99667e-24
1.24969e-18
3.93253e-13
6.31108e-08
-1.98244e-30
1.9957e-24
1.24942e-18
3.93202e-13
6.31046e-08
-1.98434e-30
1.99516e-24
1.24927e-18
3.93174e-13
6.31008e-08
-1.9859e-30
1.99473e-24
1.24915e-18
3.93152e-13
6.30978e-08
-1.9859e-30
1.99473e-24
1.24915e-18
3.93152e-13
6.30978e-08
-1.98434e-30
1.99516e-24
1.24927e-18
3.93174e-13
6.31008e-08
-1.98244e-30
1.9957e-24
1.24942e-18
3.93202e-13
6.31046e-08
-1.97928e-30
1.99667e-24
1.24969e-18
3.93253e-13
6.31108e-08
-1.97661e-30
1.99745e-24
1.24991e-18
3.93293e-13
6.31161e-08
-1.99362e-30
1.99316e-24
1.24876e-18
3.93058e-13
6.30789e-08
-2.0004e-30
1.99119e-24
1.2482e-18
3.92942e-13
6.30621e-08
-2.3647e-30
1.88398e-24
1.21795e-18
3.86945e-13
6.22286e-08
-2.46573e-30
1.85336e-24
1.20924e-18
3.85235e-13
6.19973e-08
-7.89438e-30
2.61927e-25
7.65491e-19
2.9924e-13
5.03144e-08
-1.24855e-29
-2.54004e-25
7.09278e-19
2.85959e-13
4.38835e-08
-4.82011e-30
1.83057e-24
1.24567e-18
3.80873e-13
5.55993e-08
-4.67828e-30
1.87048e-24
1.25615e-18
3.82754e-13
5.58307e-08
-4.1657e-30
2.01073e-24
1.29269e-18
3.89366e-13
5.66642e-08
-4.15623e-30
2.01331e-24
1.29336e-18
3.89493e-13
5.66808e-08
-4.1319e-30
2.01909e-24
1.29479e-18
3.89758e-13
5.67182e-08
-4.1357e-30
2.01806e-24
1.29453e-18
3.89712e-13
5.67129e-08
-4.14019e-30
2.01679e-24
1.2942e-18
3.89657e-13
5.67065e-08
-4.14291e-30
2.01607e-24
1.29402e-18
3.89625e-13
5.67027e-08
-4.14515e-30
2.0155e-24
1.29387e-18
3.89601e-13
5.66996e-08
-4.14515e-30
2.0155e-24
1.29387e-18
3.89601e-13
5.66996e-08
-4.14291e-30
2.01607e-24
1.29402e-18
3.89625e-13
5.67027e-08
-4.14019e-30
2.01679e-24
1.2942e-18
3.89657e-13
5.67065e-08
-4.1357e-30
2.01806e-24
1.29453e-18
3.89712e-13
5.67129e-08
-4.1319e-30
2.01909e-24
1.29479e-18
3.89758e-13
5.67182e-08
-4.15623e-30
2.01331e-24
1.29336e-18
3.89493e-13
5.66808e-08
-4.16571e-30
2.01073e-24
1.29269e-18
3.89366e-13
5.66642e-08
-4.6783e-30
1.87047e-24
1.25615e-18
3.82754e-13
5.58307e-08
-4.82013e-30
1.83056e-24
1.24567e-18
3.80872e-13
5.55992e-08
-1.24855e-29
-2.54004e-25
7.09278e-19
2.85959e-13
4.38835e-08
-1.02191e-09
-3.35912e-11
-2.13461e-13
-2.67172e-16
-2.51573e-20
3.45467e-20
3.46448e-20
3.46506e-20
3.46524e-20
3.46529e-20
3.46552e-20
3.46586e-20
3.46839e-20
3.47247e-20
3.51168e-20
3.5535e-20
4.03477e-20
4.34313e-20
1.22455e-19
1.44123e-19
-1.21046e-09
-3.99001e-11
-2.58693e-13
-3.30753e-16
-4.10638e-20
3.45449e-20
3.46445e-20
3.46504e-20
3.46519e-20
3.46521e-20
3.46521e-20
3.46548e-20
3.46803e-20
3.47216e-20
3.51181e-20
3.55398e-20
4.03952e-20
4.34955e-20
1.2318e-19
1.44992e-19
-1.21555e-09
-4.00502e-11
-2.59621e-13
-3.3195e-16
-4.1352e-20
3.45449e-20
3.46445e-20
3.46504e-20
3.4652e-20
3.46521e-20
3.46521e-20
3.4655e-20
3.46807e-20
3.47219e-20
3.51185e-20
3.55404e-20
4.03964e-20
4.34968e-20
1.23187e-19
1.44999e-19
-1.23218e-09
-4.05379e-11
-2.62509e-13
-3.3551e-16
-4.21783e-20
3.45449e-20
3.46446e-20
3.46505e-20
3.4652e-20
3.46521e-20
3.46526e-20
3.4656e-20
3.46817e-20
3.4723e-20
3.51198e-20
3.55418e-20
4.03992e-20
4.35e-20
1.23204e-19
1.45014e-19
-1.23269e-09
-4.05507e-11
-2.62576e-13
-3.35585e-16
-4.21948e-20
3.45449e-20
3.46446e-20
3.46505e-20
3.4652e-20
3.46521e-20
3.46526e-20
3.4656e-20
3.46817e-20
3.4723e-20
3.51198e-20
3.55418e-20
4.03993e-20
4.35001e-20
1.23204e-19
1.45015e-19
-1.2336e-09
-4.05725e-11
-2.62685e-13
-3.35702e-16
-4.22193e-20
3.45449e-20
3.46446e-20
3.46505e-20
3.4652e-20
3.46521e-20
3.46526e-20
3.4656e-20
3.46818e-20
3.47231e-20
3.51199e-20
3.55419e-20
4.03994e-20
4.35002e-20
1.23205e-19
1.45015e-19
-1.23357e-09
-4.05707e-11
-2.62671e-13
-3.35682e-16
-4.22145e-20
3.45449e-20
3.46446e-20
3.46505e-20
3.4652e-20
3.46521e-20
3.46526e-20
3.4656e-20
3.46818e-20
3.47231e-20
3.51199e-20
3.55419e-20
4.03994e-20
4.35002e-20
1.23205e-19
1.45015e-19
-1.23353e-09
-4.05683e-11
-2.62653e-13
-3.35655e-16
-4.22083e-20
3.45449e-20
3.46446e-20
3.46505e-20
3.4652e-20
3.46521e-20
3.46527e-20
3.4656e-20
3.46818e-20
3.47231e-20
3.51199e-20
3.55419e-20
4.03994e-20
4.35003e-20
1.23205e-19
1.45015e-19
-1.23348e-09
-4.05667e-11
-2.62642e-13
-3.35641e-16
-4.2205e-20
3.45449e-20
3.46446e-20
3.46505e-20
3.4652e-20
3.46521e-20
3.46527e-20
3.4656e-20
3.46818e-20
3.47231e-20
3.51199e-20
3.55419e-20
4.03994e-20
4.35003e-20
1.23205e-19
1.45015e-19
-1.23345e-09
-4.05655e-11
-2.62634e-13
-3.35631e-16
-4.22027e-20
3.45449e-20
3.46446e-20
3.46505e-20
3.4652e-20
3.46521e-20
3.46527e-20
3.4656e-20
3.46818e-20
3.47231e-20
3.51199e-20
3.55419e-20
4.03994e-20
4.35003e-20
1.23205e-19
1.45015e-19
-1.23345e-09
-4.05655e-11
-2.62634e-13
-3.35631e-16
-4.22027e-20
3.45449e-20
3.46446e-20
3.46505e-20
3.4652e-20
3.46521e-20
3.46527e-20
3.4656e-20
3.46818e-20
3.47231e-20
3.51199e-20
3.55419e-20
4.03994e-20
4.35003e-20
1.23205e-19
1.45015e-19
-1.23348e-09
-4.05667e-11
-2.62642e-13
-3.35641e-16
-4.2205e-20
3.45449e-20
3.46446e-20
3.46505e-20
3.4652e-20
3.46521e-20
3.46527e-20
3.4656e-20
3.46818e-20
3.47231e-20
3.51199e-20
3.55419e-20
4.03994e-20
4.35003e-20
1.23205e-19
1.45015e-19
-1.23353e-09
-4.05683e-11
-2.62653e-13
-3.35655e-16
-4.22083e-20
3.45449e-20
3.46446e-20
3.46505e-20
3.4652e-20
3.46521e-20
3.46527e-20
3.4656e-20
3.46818e-20
3.47231e-20
3.51199e-20
3.55419e-20
4.03994e-20
4.35003e-20
1.23205e-19
1.45015e-19
-1.23357e-09
-4.05707e-11
-2.62671e-13
-3.35682e-16
-4.22145e-20
3.45449e-20
3.46446e-20
3.46505e-20
3.4652e-20
3.46521e-20
3.46526e-20
3.4656e-20
3.46818e-20
3.47231e-20
3.51199e-20
3.55419e-20
4.03994e-20
4.35002e-20
1.23205e-19
1.45015e-19
-1.2336e-09
-4.05725e-11
-2.62685e-13
-3.35702e-16
-4.22193e-20
3.45449e-20
3.46446e-20
3.46505e-20
3.4652e-20
3.46521e-20
3.46526e-20
3.4656e-20
3.46818e-20
3.47231e-20
3.51199e-20
3.55419e-20
4.03994e-20
4.35002e-20
1.23205e-19
1.45015e-19
-1.23269e-09
-4.05507e-11
-2.62576e-13
-3.35585e-16
-4.21948e-20
3.45449e-20
3.46446e-20
3.46505e-20
3.4652e-20
3.46521e-20
3.46526e-20
3.4656e-20
3.46817e-20
3.4723e-20
3.51198e-20
3.55418e-20
4.03993e-20
4.35001e-20
1.23204e-19
1.45015e-19
-1.23218e-09
-4.05379e-11
-2.62509e-13
-3.3551e-16
-4.21783e-20
3.45449e-20
3.46446e-20
3.46505e-20
3.4652e-20
3.46521e-20
3.46526e-20
3.4656e-20
3.46817e-20
3.4723e-20
3.51198e-20
3.55418e-20
4.03992e-20
4.35e-20
1.23204e-19
1.45014e-19
-1.21555e-09
-4.00502e-11
-2.59621e-13
-3.3195e-16
-4.1352e-20
3.45449e-20
3.46445e-20
3.46504e-20
3.4652e-20
3.46521e-20
3.46521e-20
3.4655e-20
3.46807e-20
3.47219e-20
3.51185e-20
3.55404e-20