/*--------------------------------*- C++ -*----------------------------------*\
  =========                 |
  \\      /  F ield         | OpenFOAM: The Open Source CFD Toolbox
   \\    /   O peration     | Website:  https://openfoam.org
    \\  /    A nd           | Version:  8
     \\/     M anipulation  |
\*---------------------------------------------------------------------------*/
FoamFile
{
    version     2.0;
    format      ascii;
    class       volScalarField;
    location    "0.8";
    object      p;
}
// * * * * * * * * * * * * * * * * * * * * * * * * * * * * * * * * * * * * * //

dimensions      [0 2 -2 0 0 0 0];

internalField   nonuniform List<scalar> 
180000
(
0.00130537
0.00121252
0.00128609
0.00105868
0.00119202
0.00129265
0.00120002
0.00127337
0.00104741
0.00117953
0.00129239
0.00119977
0.00127311
0.00104719
0.00117929
0.00129099
0.00119837
0.00127173
0.00104597
0.001178
0.00129094
0.00119832
0.00127168
0.00104593
0.00117795
0.00129075
0.00119812
0.0012715
0.00104576
0.00117778
0.00129074
0.00119812
0.00127149
0.00104576
0.00117777
0.00129073
0.00119811
0.00127148
0.00104574
0.00117776
0.00129074
0.00119811
0.00127149
0.00104575
0.00117777
0.00129074
0.00119811
0.00127149
0.00104575
0.00117777
0.00129074
0.00119811
0.00127149
0.00104575
0.00117777
0.00129074
0.00119811
0.00127149
0.00104575
0.00117777
0.00129073
0.00119811
0.00127148
0.00104574
0.00117776
0.00129074
0.00119812
0.00127149
0.00104576
0.00117777
0.00129075
0.00119812
0.0012715
0.00104576
0.00117778
0.00129094
0.00119832
0.00127168
0.00104593
0.00117795
0.00129099
0.00119837
0.00127173
0.00104597
0.001178
0.00129239
0.00119977
0.00127311
0.00104719
0.00117929
0.00129265
0.00120002
0.00127337
0.00104741
0.00117953
0.00130537
0.00121252
0.00128609
0.00105868
0.00119202
0.000815345
0.00081325
0.000816267
0.000787763
0.000812158
0.00081578
0.00081216
0.000816335
0.00078487
0.000810787
0.00081579
0.000812138
0.000816337
0.000784815
0.000810761
0.000815805
0.000811988
0.000816312
0.000784474
0.000810591
0.000815806
0.000811982
0.000816311
0.000784462
0.000810586
0.000815805
0.000811959
0.000816305
0.000784412
0.00081056
0.000815805
0.000811959
0.000816305
0.000784411
0.00081056
0.000815804
0.000811956
0.000816304
0.000784407
0.000810557
0.000815804
0.000811957
0.000816304
0.000784407
0.000810558
0.000815804
0.000811957
0.000816304
0.000784408
0.000810558
0.000815804
0.000811957
0.000816304
0.000784408
0.000810558
0.000815804
0.000811957
0.000816304
0.000784407
0.000810558
0.000815804
0.000811956
0.000816304
0.000784407
0.000810557
0.000815805
0.000811959
0.000816305
0.000784411
0.00081056
0.000815805
0.000811959
0.000816305
0.000784412
0.00081056
0.000815806
0.000811982
0.000816311
0.000784462
0.000810586
0.000815805
0.000811988
0.000816312
0.000784474
0.000810591
0.00081579
0.000812138
0.000816337
0.000784815
0.000810761
0.00081578
0.00081216
0.000816335
0.00078487
0.000810787
0.000815345
0.00081325
0.000816267
0.000787763
0.000812158
0.000618491
0.000607301
0.000617084
0.000575152
0.000608327
0.00061707
0.000605456
0.000615656
0.000572254
0.000606272
0.000617043
0.00060542
0.000615629
0.0005722
0.000606234
0.000616855
0.000605171
0.000615441
0.000571847
0.00060598
0.000616849
0.000605163
0.000615435
0.000571835
0.000605971
0.00061682
0.000605125
0.000615406
0.000571783
0.000605934
0.00061682
0.000605124
0.000615406
0.000571782
0.000605933
0.000616817
0.00060512
0.000615403
0.000571777
0.000605929
0.000616817
0.000605121
0.000615403
0.000571778
0.00060593
0.000616817
0.000605121
0.000615403
0.000571778
0.00060593
0.000616817
0.000605121
0.000615403
0.000571778
0.00060593
0.000616817
0.000605121
0.000615403
0.000571778
0.00060593
0.000616817
0.00060512
0.000615403
0.000571777
0.000605929
0.00061682
0.000605124
0.000615406
0.000571782
0.000605933
0.00061682
0.000605125
0.000615406
0.000571783
0.000605934
0.000616849
0.000605163
0.000615435
0.000571835
0.000605971
0.000616855
0.000605171
0.000615441
0.000571847
0.00060598
0.000617043
0.00060542
0.000615629
0.0005722
0.000606234
0.00061707
0.000605456
0.000615656
0.000572254
0.000606272
0.000618491
0.000607301
0.000617084
0.000575152
0.000608327
0.00064584
0.000614562
0.000640641
0.000557289
0.000615124
0.000641689
0.000610292
0.000636476
0.000553028
0.000610845
0.000641604
0.000610205
0.000636392
0.000552947
0.000610763
0.000641101
0.000609677
0.000635894
0.000552436
0.000610269
0.000641084
0.000609659
0.000635877
0.000552418
0.000610252
0.000641012
0.000609583
0.000635806
0.000552344
0.000610182
0.000641011
0.000609582
0.000635805
0.000552343
0.000610181
0.000641005
0.000609575
0.000635799
0.000552335
0.000610175
0.000641006
0.000609576
0.000635801
0.000552336
0.000610176
0.000641007
0.000609577
0.000635802
0.000552337
0.000610177
0.000641007
0.000609577
0.000635802
0.000552337
0.000610177
0.000641006
0.000609576
0.000635801
0.000552336
0.000610176
0.000641005
0.000609575
0.000635799
0.000552335
0.000610175
0.000641011
0.000609582
0.000635805
0.000552343
0.000610181
0.000641012
0.000609583
0.000635806
0.000552344
0.000610182
0.000641084
0.000609659
0.000635877
0.000552418
0.000610252
0.000641101
0.000609677
0.000635894
0.000552436
0.000610269
0.000641604
0.000610205
0.000636392
0.000552947
0.000610763
0.000641689
0.000610292
0.000636476
0.000553028
0.000610845
0.00064584
0.000614562
0.000640641
0.000557289
0.000615124
0.000677164
0.000644904
0.000672326
0.000584668
0.00064826
0.000673033
0.000640461
0.000668119
0.000580231
0.000643873
0.000672946
0.00064037
0.000668033
0.000580145
0.000643786
0.000672428
0.000639808
0.000667512
0.0005796
0.000643265
0.000672411
0.000639789
0.000667495
0.000579581
0.000643247
0.000672335
0.000639707
0.00066742
0.000579502
0.000643172
0.000672334
0.000639706
0.000667419
0.0005795
0.000643171
0.000672328
0.000639698
0.000667413
0.000579492
0.000643164
0.000672329
0.0006397
0.000667414
0.000579493
0.000643166
0.00067233
0.0006397
0.000667415
0.000579494
0.000643167
0.00067233
0.0006397
0.000667415
0.000579494
0.000643167
0.000672329
0.0006397
0.000667414
0.000579493
0.000643166
0.000672328
0.000639698
0.000667413
0.000579492
0.000643164
0.000672334
0.000639706
0.000667419
0.0005795
0.000643171
0.000672335
0.000639707
0.00066742
0.000579502
0.000643172
0.000672411
0.000639789
0.000667495
0.000579581
0.000643247
0.000672428
0.000639808
0.000667512
0.0005796
0.000643265
0.000672946
0.00064037
0.000668033
0.000580145
0.000643786
0.000673033
0.000640461
0.000668119
0.000580231
0.000643873
0.000677164
0.000644904
0.000672326
0.000584668
0.00064826
0.000681048
0.000652129
0.000677347
0.000595751
0.000659777
0.000677435
0.000648114
0.000673648
0.00059158
0.000655839
0.000677359
0.000648031
0.000673571
0.0005915
0.000655761
0.000676883
0.000647502
0.000673091
0.000590968
0.000655268
0.000676867
0.000647484
0.000673075
0.00059095
0.000655252
0.000676797
0.000647405
0.000673004
0.000590871
0.00065518
0.000676796
0.000647404
0.000673003
0.00059087
0.000655179
0.000676789
0.000647396
0.000672997
0.000590862
0.000655172
0.00067679
0.000647397
0.000672998
0.000590863
0.000655173
0.000676791
0.000647398
0.000672999
0.000590863
0.000655174
0.000676791
0.000647398
0.000672999
0.000590863
0.000655174
0.00067679
0.000647397
0.000672998
0.000590863
0.000655173
0.000676789
0.000647396
0.000672997
0.000590862
0.000655172
0.000676796
0.000647404
0.000673003
0.00059087
0.000655179
0.000676797
0.000647405
0.000673004
0.000590871
0.00065518
0.000676867
0.000647484
0.000673075
0.00059095
0.000655252
0.000676883
0.000647502
0.000673091
0.000590968
0.000655268
0.000677359
0.000648031
0.000673571
0.0005915
0.000655761
0.000677435
0.000648114
0.000673648
0.00059158
0.000655839
0.000681048
0.000652129
0.000677347
0.000595751
0.000659777
0.000675895
0.000648415
0.000672856
0.000594331
0.000660473
0.000672485
0.00064463
0.000669375
0.000590352
0.000656798
0.000672413
0.000644552
0.000669302
0.000590275
0.000656724
0.000671947
0.000644034
0.000668833
0.00058975
0.000656243
0.000671931
0.000644017
0.000668817
0.000589733
0.000656226
0.000671861
0.000643939
0.000668747
0.000589654
0.000656155
0.00067186
0.000643937
0.000668745
0.000589653
0.000656154
0.000671853
0.000643929
0.000668739
0.000589644
0.000656147
0.000671854
0.00064393
0.00066874
0.000589645
0.000656148
0.000671855
0.000643931
0.00066874
0.000589646
0.000656148
0.000671855
0.000643931
0.00066874
0.000589646
0.000656148
0.000671854
0.00064393
0.00066874
0.000589645
0.000656148
0.000671853
0.000643929
0.000668739
0.000589644
0.000656147
0.00067186
0.000643937
0.000668745
0.000589653
0.000656154
0.000671861
0.000643939
0.000668747
0.000589654
0.000656155
0.000671931
0.000644017
0.000668817
0.000589733
0.000656226
0.000671947
0.000644034
0.000668833
0.00058975
0.000656243
0.000672413
0.000644552
0.000669302
0.000590275
0.000656724
0.000672485
0.00064463
0.000669375
0.000590352
0.000656798
0.000675895
0.000648415
0.000672856
0.000594331
0.000660473
0.000672427
0.000645095
0.000669777
0.000591672
0.000661196
0.000669047
0.000641374
0.000666338
0.000587778
0.000657622
0.000668975
0.000641297
0.000666266
0.000587702
0.00065755
0.0006685
0.000640774
0.000665789
0.000587175
0.000657064
0.000668484
0.000640756
0.000665773
0.000587157
0.000657048
0.000668412
0.000640676
0.000665701
0.000587077
0.000656975
0.00066841
0.000640675
0.000665699
0.000587075
0.000656973
0.000668403
0.000640666
0.000665692
0.000587067
0.000656966
0.000668404
0.000640668
0.000665693
0.000587068
0.000656967
0.000668404
0.000640668
0.000665694
0.000587068
0.000656968
0.000668404
0.000640668
0.000665694
0.000587068
0.000656968
0.000668404
0.000640668
0.000665693
0.000587068
0.000656967
0.000668403
0.000640666
0.000665692
0.000587067
0.000656966
0.00066841
0.000640675
0.000665699
0.000587075
0.000656973
0.000668412
0.000640676
0.000665701
0.000587077
0.000656975
0.000668484
0.000640756
0.000665773
0.000587157
0.000657048
0.0006685
0.000640774
0.000665789
0.000587175
0.000657064
0.000668975
0.000641297
0.000666266
0.000587702
0.00065755
0.000669047
0.000641374
0.000666338
0.000587778
0.000657622
0.000672427
0.000645095
0.000669777
0.000591672
0.000661196
0.000671008
0.000643748
0.000668738
0.000590821
0.000663408
0.000667658
0.000640074
0.000665336
0.000586989
0.000659906
0.000667587
0.000639998
0.000665264
0.000586914
0.000659834
0.000667103
0.000639468
0.000664779
0.000586381
0.000659343
0.000667087
0.00063945
0.000664763
0.000586364
0.000659326
0.000667012
0.000639368
0.000664689
0.000586282
0.000659251
0.000667011
0.000639367
0.000664687
0.000586281
0.00065925
0.000667003
0.000639358
0.00066468
0.000586272
0.000659242
0.000667004
0.000639359
0.000664681
0.000586273
0.000659243
0.000667005
0.000639359
0.000664681
0.000586273
0.000659243
0.000667005
0.000639359
0.000664681
0.000586273
0.000659243
0.000667004
0.000639359
0.000664681
0.000586273
0.000659243
0.000667003
0.000639358
0.00066468
0.000586272
0.000659242
0.000667011
0.000639367
0.000664687
0.000586281
0.00065925
0.000667012
0.000639368
0.000664689
0.000586282
0.000659251
0.000667087
0.00063945
0.000664763
0.000586364
0.000659326
0.000667103
0.000639468
0.000664779
0.000586381
0.000659343
0.000667587
0.000639998
0.000665264
0.000586914
0.000659834
0.000667658
0.000640074
0.000665336
0.000586989
0.000659906
0.000671008
0.000643748
0.000668738
0.000590821
0.000663408
0.000669985
0.000642995
0.000668129
0.000590873
0.000665706
0.000666694
0.000639389
0.000664792
0.000587112
0.000662279
0.000666624
0.000639313
0.000664721
0.000587038
0.000662208
0.000666136
0.00063878
0.000664232
0.000586502
0.000661711
0.000666119
0.000638762
0.000664215
0.000586484
0.000661694
0.000666043
0.000638679
0.000664139
0.000586402
0.000661618
0.000666042
0.000638677
0.000664138
0.0005864
0.000661616
0.000666033
0.000638668
0.00066413
0.00058639
0.000661608
0.000666034
0.000638669
0.000664131
0.000586391
0.000661609
0.000666035
0.000638669
0.000664131
0.000586391
0.00066161
0.000666035
0.000638669
0.000664131
0.000586391
0.00066161
0.000666034
0.000638669
0.000664131
0.000586391
0.000661609
0.000666033
0.000638668
0.00066413
0.00058639
0.000661608
0.000666042
0.000638677
0.000664138
0.0005864
0.000661616
0.000666043
0.000638679
0.000664139
0.000586402
0.000661618
0.000666119
0.000638762
0.000664215
0.000586484
0.000661694
0.000666136
0.00063878
0.000664232
0.000586502
0.000661711
0.000666624
0.000639313
0.000664721
0.000587038
0.000662208
0.000666694
0.000639389
0.000664792
0.000587112
0.000662279
0.000669985
0.000642995
0.000668129
0.000590873
0.000665706
0.000668762
0.000642112
0.000667321
0.000590979
0.000667221
0.000665538
0.000638582
0.000664056
0.000587294
0.00066385
0.000665469
0.000638508
0.000663987
0.000587222
0.00066378
0.000664978
0.000637972
0.000663495
0.000586683
0.000663278
0.000664961
0.000637954
0.000663478
0.000586666
0.000663261
0.000664883
0.00063787
0.000663401
0.000586582
0.000663183
0.000664882
0.000637868
0.000663399
0.00058658
0.000663181
0.000664873
0.000637858
0.000663391
0.00058657
0.000663173
0.000664874
0.000637859
0.000663392
0.000586571
0.000663174
0.000664874
0.000637859
0.000663392
0.000586571
0.000663174
0.000664874
0.000637859
0.000663392
0.000586571
0.000663174
0.000664874
0.000637859
0.000663392
0.000586571
0.000663174
0.000664873
0.000637858
0.000663391
0.00058657
0.000663173
0.000664882
0.000637868
0.000663399
0.00058658
0.000663181
0.000664883
0.00063787
0.000663401
0.000586582
0.000663183
0.000664961
0.000637954
0.000663478
0.000586666
0.000663261
0.000664978
0.000637972
0.000663495
0.000586683
0.000663278
0.000665469
0.000638508
0.000663987
0.000587222
0.00066378
0.000665538
0.000638582
0.000664056
0.000587294
0.00066385
0.000668762
0.000642112
0.000667321
0.000590979
0.000667221
0.000667423
0.000641096
0.00066638
0.000590938
0.000665176
0.000664263
0.000637641
0.000663184
0.000587329
0.000661861
0.000664195
0.000637568
0.000663116
0.000587258
0.000661792
0.0006637
0.00063703
0.000662621
0.000586717
0.000661287
0.000663684
0.000637012
0.000662604
0.000586699
0.00066127
0.000663604
0.000636926
0.000662525
0.000586614
0.00066119
0.000663602
0.000636924
0.000662524
0.000586612
0.000661188
0.000663593
0.000636914
0.000662515
0.000586602
0.00066118
0.000663594
0.000636915
0.000662516
0.000586603
0.000661181
0.000663595
0.000636915
0.000662516
0.000586603
0.000661181
0.000663595
0.000636915
0.000662516
0.000586603
0.000661181
0.000663594
0.000636915
0.000662516
0.000586603
0.000661181
0.000663593
0.000636914
0.000662515
0.000586602
0.00066118
0.000663603
0.000636924
0.000662524
0.000586612
0.000661188
0.000663604
0.000636926
0.000662526
0.000586614
0.00066119
0.000663684
0.000637012
0.000662604
0.000586699
0.00066127
0.0006637
0.00063703
0.000662621
0.000586717
0.000661287
0.000664195
0.000637568
0.000663116
0.000587258
0.000661792
0.000664263
0.000637641
0.000663184
0.000587329
0.000661861
0.000667423
0.000641096
0.00066638
0.000590938
0.000665176
0.000666096
0.00064007
0.000665433
0.000590751
0.000662126
0.000662996
0.000636686
0.000662303
0.000587214
0.000658866
0.000662929
0.000636614
0.000662236
0.000587145
0.000658798
0.000662431
0.000636074
0.000661738
0.000586602
0.00065829
0.000662415
0.000636056
0.000661721
0.000586584
0.000658273
0.000662334
0.000635969
0.000661641
0.000586498
0.000658192
0.000662332
0.000635967
0.000661639
0.000586496
0.00065819
0.000662323
0.000635957
0.00066163
0.000586486
0.000658181
0.000662324
0.000635958
0.000661631
0.000586487
0.000658182
0.000662324
0.000635958
0.000661631
0.000586487
0.000658182
0.000662324
0.000635958
0.000661631
0.000586487
0.000658182
0.000662324
0.000635958
0.000661631
0.000586487
0.000658182
0.000662323
0.000635957
0.00066163
0.000586486
0.000658181
0.000662332
0.000635967
0.000661639
0.000586496
0.00065819
0.000662334
0.000635969
0.000661641
0.000586498
0.000658192
0.000662415
0.000636056
0.000661721
0.000586584
0.000658273
0.000662431
0.000636074
0.000661738
0.000586602
0.00065829
0.000662929
0.000636614
0.000662236
0.000587145
0.000658798
0.000662996
0.000636686
0.000662303
0.000587214
0.000658866
0.000666096
0.00064007
0.000665433
0.000590751
0.000662126
0.000664807
0.000639074
0.000664512
0.000590455
0.000659367
0.000661766
0.000635759
0.000661445
0.00058699
0.000656161
0.0006617
0.000635689
0.000661379
0.000586922
0.000656094
0.0006612
0.000635146
0.000660879
0.000586378
0.000655584
0.000661183
0.000635129
0.000660862
0.00058636
0.000655567
0.000661101
0.00063504
0.00066078
0.000586273
0.000655485
0.000661099
0.000635038
0.000660779
0.000586271
0.000655483
0.000661089
0.000635028
0.000660769
0.00058626
0.000655473
0.00066109
0.000635028
0.00066077
0.000586261
0.000655474
0.00066109
0.000635028
0.00066077
0.000586261
0.000655474
0.00066109
0.000635028
0.00066077
0.000586261
0.000655474
0.00066109
0.000635028
0.00066077
0.000586261
0.000655474
0.000661089
0.000635028
0.000660769
0.00058626
0.000655473
0.000661099
0.000635038
0.000660779
0.000586271
0.000655483
0.000661101
0.00063504
0.00066078
0.000586273
0.000655485
0.000661183
0.000635129
0.000660862
0.00058636
0.000655567
0.0006612
0.000635146
0.000660879
0.000586378
0.000655584
0.0006617
0.000635689
0.000661379
0.000586922
0.000656094
0.000661766
0.000635759
0.000661445
0.00058699
0.000656161
0.000664807
0.000639074
0.000664512
0.000590455
0.000659367
0.000663545
0.000638101
0.000663605
0.000590067
0.000656891
0.000660561
0.000634853
0.000660601
0.000586672
0.000653739
0.000660496
0.000634784
0.000660536
0.000586605
0.000653673
0.000659993
0.00063424
0.000660034
0.00058606
0.000653162
0.000659977
0.000634222
0.000660017
0.000586043
0.000653145
0.000659893
0.000634133
0.000659934
0.000585954
0.000653061
0.000659891
0.000634131
0.000659932
0.000585952
0.000653059
0.000659881
0.00063412
0.000659922
0.000585941
0.000653049
0.000659882
0.000634121
0.000659923
0.000585942
0.00065305
0.000659882
0.000634121
0.000659923
0.000585942
0.00065305
0.000659882
0.000634121
0.000659923
0.000585942
0.00065305
0.000659882
0.000634121
0.000659923
0.000585942
0.00065305
0.000659881
0.00063412
0.000659922
0.000585941
0.000653049
0.000659891
0.000634131
0.000659932
0.000585952
0.000653059
0.000659893
0.000634133
0.000659934
0.000585954
0.000653061
0.000659977
0.000634222
0.000660017
0.000586043
0.000653145
0.000659993
0.00063424
0.000660034
0.00058606
0.000653162
0.000660496
0.000634784
0.000660536
0.000586605
0.000653673
0.000660561
0.000634853
0.000660601
0.000586672
0.000653739
0.000663545
0.000638101
0.000663605
0.000590067
0.000656891
0.000662298
0.000637141
0.000662706
0.000589586
0.000654477
0.000659372
0.000633958
0.000659763
0.000586261
0.000651377
0.000659308
0.000633891
0.0006597
0.000586195
0.000651313
0.000658803
0.000633346
0.000659195
0.00058565
0.0006508
0.000658786
0.000633328
0.000659178
0.000585632
0.000650783
0.000658701
0.000633238
0.000659094
0.000585543
0.000650698
0.000658699
0.000633235
0.000659092
0.000585541
0.000650696
0.000658688
0.000633224
0.000659082
0.000585529
0.000650686
0.000658689
0.000633225
0.000659083
0.00058553
0.000650687
0.000658689
0.000633225
0.000659083
0.00058553
0.000650687
0.000658689
0.000633225
0.000659083
0.00058553
0.000650687
0.000658689
0.000633225
0.000659083
0.00058553
0.000650687
0.000658688
0.000633224
0.000659082
0.000585529
0.000650686
0.000658699
0.000633235
0.000659092
0.000585541
0.000650696
0.000658701
0.000633238
0.000659094
0.000585543
0.000650698
0.000658786
0.000633328
0.000659178
0.000585632
0.000650783
0.000658803
0.000633346
0.000659195
0.00058565
0.0006508
0.000659308
0.000633891
0.0006597
0.000586195
0.000651313
0.000659372
0.000633958
0.000659763
0.000586261
0.000651377
0.000662298
0.000637141
0.000662706
0.000589586
0.000654477
0.000661067
0.000636191
0.000661814
0.000589012
0.000652052
0.000658196
0.000633073
0.000658931
0.000585755
0.000649004
0.000658133
0.000633007
0.000658869
0.000585691
0.000648941
0.000657626
0.000632461
0.000658363
0.000585145
0.000648428
0.000657609
0.000632444
0.000658346
0.000585128
0.00064841
0.000657523
0.000632352
0.00065826
0.000585038
0.000648325
0.000657521
0.00063235
0.000658258
0.000585036
0.000648322
0.00065751
0.000632338
0.000658248
0.000585024
0.000648312
0.000657511
0.000632339
0.000658249
0.000585025
0.000648313
0.000657511
0.000632339
0.000658248
0.000585025
0.000648313
0.000657511
0.000632339
0.000658248
0.000585025
0.000648313
0.000657511
0.000632339
0.000658249
0.000585025
0.000648313
0.00065751
0.000632338
0.000658248
0.000585024
0.000648312
0.000657521
0.00063235
0.000658258
0.000585036
0.000648322
0.000657523
0.000632352
0.00065826
0.000585038
0.000648325
0.000657609
0.000632444
0.000658346
0.000585128
0.00064841
0.000657626
0.000632461
0.000658363
0.000585145
0.000648428
0.000658133
0.000633007
0.000658869
0.000585691
0.000648941
0.000658196
0.000633073
0.000658931
0.000585755
0.000649004
0.000661067
0.000636191
0.000661814
0.000589012
0.000652052
0.000659852
0.000635253
0.000660931
0.000588347
0.000649634
0.000657035
0.000632198
0.000658107
0.000585158
0.000646637
0.000656974
0.000632133
0.000658046
0.000585095
0.000646575
0.000656465
0.000631587
0.000657539
0.000584549
0.000646061
0.000656448
0.000631569
0.000657522
0.000584532
0.000646044
0.000656361
0.000631477
0.000657435
0.000584441
0.000645957
0.000656359
0.000631474
0.000657433
0.000584438
0.000645955
0.000656348
0.000631462
0.000657422
0.000584427
0.000645944
0.000656349
0.000631463
0.000657423
0.000584428
0.000645944
0.000656348
0.000631463
0.000657423
0.000584427
0.000645944
0.000656348
0.000631463
0.000657423
0.000584427
0.000645944
0.000656349
0.000631463
0.000657423
0.000584428
0.000645944
0.000656348
0.000631462
0.000657422
0.000584427
0.000645944
0.000656359
0.000631474
0.000657433
0.000584438
0.000645955
0.000656361
0.000631477
0.000657435
0.000584441
0.000645957
0.000656448
0.000631569
0.000657522
0.000584532
0.000646044
0.000656465
0.000631587
0.000657539
0.000584549
0.000646061
0.000656974
0.000632133
0.000658046
0.000585095
0.000646575
0.000657035
0.000632198
0.000658107
0.000585158
0.000646637
0.000659852
0.000635253
0.000660931
0.000588347
0.000649634
0.000658653
0.000634327
0.000660059
0.000587592
0.000647242
0.00065589
0.000631334
0.000657292
0.000584469
0.000644293
0.000655829
0.00063127
0.000657233
0.000584407
0.000644233
0.00065532
0.000630724
0.000656724
0.000583862
0.000643719
0.000655303
0.000630706
0.000656708
0.000583845
0.000643702
0.000655214
0.000630613
0.00065662
0.000583753
0.000643614
0.000655212
0.00063061
0.000656618
0.000583751
0.000643612
0.000655201
0.000630598
0.000656606
0.000583739
0.0006436
0.000655202
0.000630599
0.000656607
0.00058374
0.000643601
0.000655201
0.000630598
0.000656607
0.00058374
0.000643601
0.000655201
0.000630599
0.000656607
0.00058374
0.000643601
0.000655202
0.000630599
0.000656607
0.00058374
0.000643601
0.000655201
0.000630598
0.000656606
0.000583739
0.0006436
0.000655212
0.00063061
0.000656618
0.000583751
0.000643612
0.000655214
0.000630613
0.00065662
0.000583753
0.000643614
0.000655303
0.000630706
0.000656708
0.000583845
0.000643702
0.00065532
0.000630724
0.000656724
0.000583862
0.000643719
0.000655829
0.00063127
0.000657233
0.000584407
0.000644233
0.00065589
0.000631334
0.000657292
0.000584469
0.000644293
0.000658653
0.000634327
0.000660059
0.000587592
0.000647242
0.00065747
0.000633413
0.000659199
0.000586749
0.000644761
0.000654759
0.00063048
0.000656489
0.000583691
0.000641861
0.0006547
0.000630418
0.00065643
0.000583631
0.000641802
0.000654189
0.000629872
0.000655921
0.000583086
0.000641289
0.000654172
0.000629854
0.000655904
0.000583069
0.000641272
0.000654083
0.00062976
0.000655816
0.000582977
0.000641183
0.000654081
0.000629757
0.000655813
0.000582974
0.000641181
0.000654069
0.000629745
0.000655802
0.000582962
0.000641169
0.000654069
0.000629746
0.000655802
0.000582963
0.00064117
0.000654069
0.000629745
0.000655802
0.000582963
0.00064117
0.000654069
0.000629745
0.000655802
0.000582963
0.00064117
0.000654069
0.000629746
0.000655803
0.000582963
0.00064117
0.000654069
0.000629745
0.000655802
0.000582962
0.000641169
0.000654081
0.000629757
0.000655813
0.000582974
0.000641181
0.000654083
0.00062976
0.000655816
0.000582977
0.000641183
0.000654172
0.000629854
0.000655904
0.000583069
0.000641272
0.000654189
0.000629872
0.000655921
0.000583086
0.000641289
0.0006547
0.000630418
0.00065643
0.000583631
0.000641802
0.000654759
0.00063048
0.000656489
0.000583691
0.000641861
0.00065747
0.000633413
0.000659199
0.000586749
0.000644761
-1.80875e-05
2.02873e-05
4.6357e-06
9.35347e-07
2.93537e-07
1.8511e-07
1.65798e-07
1.62438e-07
1.61765e-07
1.61644e-07
1.61612e-07
1.61598e-07
1.6152e-07
1.61423e-07
1.60615e-07
1.5997e-07
1.53621e-07
1.50846e-07
1.12077e-07
1.07929e-07
-1.83566e-05
2.03552e-05
4.71151e-06
9.5034e-07
2.96409e-07
1.8561e-07
1.65876e-07
1.62436e-07
1.61748e-07
1.61623e-07
1.6159e-07
1.61576e-07
1.61496e-07
1.61398e-07
1.60578e-07
1.59925e-07
1.53509e-07
1.50727e-07
1.11783e-07
1.07722e-07
-1.83612e-05
2.03547e-05
4.71243e-06
9.5059e-07
2.96475e-07
1.85623e-07
1.65879e-07
1.62436e-07
1.61747e-07
1.61623e-07
1.6159e-07
1.61576e-07
1.61496e-07
1.61398e-07
1.60577e-07
1.59925e-07
1.53507e-07
1.50726e-07
1.1178e-07
1.0772e-07
-1.83837e-05
2.03486e-05
4.71442e-06
9.51199e-07
2.96657e-07
1.85659e-07
1.65886e-07
1.62437e-07
1.61747e-07
1.61622e-07
1.61589e-07
1.61574e-07
1.61494e-07
1.61396e-07
1.60575e-07
1.59922e-07
1.53501e-07
1.5072e-07
1.11769e-07
1.07714e-07
-1.83845e-05
2.03483e-05
4.71446e-06
9.51216e-07
2.96664e-07
1.85661e-07
1.65887e-07
1.62437e-07
1.61747e-07
1.61622e-07
1.61589e-07
1.61574e-07
1.61494e-07
1.61396e-07
1.60575e-07
1.59922e-07
1.53501e-07
1.5072e-07
1.11768e-07
1.07714e-07
-1.83872e-05
2.03471e-05
4.71442e-06
9.51233e-07
2.96673e-07
1.85663e-07
1.65887e-07
1.62437e-07
1.61747e-07
1.61622e-07
1.61589e-07
1.61574e-07
1.61494e-07
1.61396e-07
1.60575e-07
1.59922e-07
1.535e-07
1.50719e-07
1.11768e-07
1.07714e-07
-1.83873e-05
2.03471e-05
4.71444e-06
9.51237e-07
2.96674e-07
1.85663e-07
1.65887e-07
1.62437e-07
1.61747e-07
1.61622e-07
1.61589e-07
1.61574e-07
1.61494e-07
1.61396e-07
1.60575e-07
1.59922e-07
1.535e-07
1.50719e-07
1.11768e-07
1.07714e-07
-1.83876e-05
2.03471e-05
4.71446e-06
9.51242e-07
2.96675e-07
1.85663e-07
1.65887e-07
1.62437e-07
1.61747e-07
1.61622e-07
1.61589e-07
1.61574e-07
1.61494e-07
1.61396e-07
1.60575e-07
1.59922e-07
1.535e-07
1.50719e-07
1.11768e-07
1.07714e-07
-1.83876e-05
2.03471e-05
4.71448e-06
9.51244e-07
2.96676e-07
1.85663e-07
1.65887e-07
1.62437e-07
1.61747e-07
1.61622e-07
1.61589e-07
1.61574e-07
1.61494e-07
1.61396e-07
1.60575e-07
1.59922e-07
1.535e-07
1.50719e-07
1.11768e-07
1.07714e-07
-1.83876e-05
2.03471e-05
4.71449e-06
9.51246e-07
2.96676e-07
1.85663e-07
1.65887e-07
1.62437e-07
1.61747e-07
1.61622e-07
1.61589e-07
1.61574e-07
1.61494e-07
1.61396e-07
1.60575e-07
1.59922e-07
1.535e-07
1.50719e-07
1.11768e-07
1.07714e-07
-1.83876e-05
2.03471e-05
4.71449e-06
9.51246e-07
2.96676e-07
1.85663e-07
1.65887e-07
1.62437e-07
1.61747e-07
1.61622e-07
1.61589e-07
1.61574e-07
1.61494e-07
1.61396e-07
1.60575e-07
1.59922e-07
1.535e-07
1.50719e-07
1.11768e-07
1.07714e-07
-1.83876e-05
2.03471e-05
4.71448e-06
9.51244e-07
2.96676e-07
1.85663e-07
1.65887e-07
1.62437e-07
1.61747e-07
1.61622e-07
1.61589e-07
1.61574e-07
1.61494e-07
1.61396e-07
1.60575e-07
1.59922e-07
1.535e-07
1.50719e-07
1.11768e-07
1.07714e-07
-1.83876e-05
2.03471e-05
4.71446e-06
9.51242e-07
2.96675e-07
1.85663e-07
1.65887e-07
1.62437e-07
1.61747e-07
1.61622e-07
1.61589e-07
1.61574e-07
1.61494e-07
1.61396e-07
1.60575e-07
1.59922e-07
1.535e-07
1.50719e-07
1.11768e-07
1.07714e-07
-1.83873e-05
2.03471e-05
4.71444e-06
9.51237e-07
2.96674e-07
1.85663e-07
1.65887e-07
1.62437e-07
1.61747e-07
1.61622e-07
1.61589e-07
1.61574e-07
1.61494e-07
1.61396e-07
1.60575e-07
1.59922e-07
1.535e-07
1.50719e-07
1.11768e-07
1.07714e-07
-1.83872e-05
2.03471e-05
4.71442e-06
9.51233e-07
2.96673e-07
1.85663e-07
1.65887e-07
1.62437e-07
1.61747e-07
1.61622e-07
1.61589e-07
1.61574e-07
1.61494e-07
1.61396e-07
1.60575e-07
1.59922e-07
1.535e-07
1.50719e-07
1.11768e-07
1.07714e-07
-1.83845e-05
2.03483e-05
4.71446e-06
9.51216e-07
2.96664e-07
1.85661e-07
1.65887e-07
1.62437e-07
1.61747e-07
1.61622e-07
1.61589e-07
1.61574e-07
1.61494e-07
1.61396e-07
1.60575e-07
1.59922e-07
1.53501e-07
1.5072e-07
1.11768e-07
1.07714e-07
-1.83837e-05
2.03486e-05
4.71442e-06
9.51199e-07
2.96657e-07
1.85659e-07
1.65886e-07
1.62437e-07
1.61747e-07
1.61622e-07
1.61589e-07
1.61574e-07
1.61494e-07
1.61396e-07
1.60575e-07
1.59922e-07
1.53501e-07
1.5072e-07
1.11769e-07
1.07714e-07
-1.83612e-05
2.03547e-05
4.71243e-06
9.5059e-07
2.96475e-07
1.85623e-07
1.65879e-07
1.62436e-07
1.61747e-07
1.61623e-07
1.6159e-07
1.61576e-07
1.61496e-07
1.61398e-07
1.60577e-07
1.59925e-07
1.53507e-07
1.50726e-07
1.1178e-07
1.0772e-07
-1.83566e-05
2.03552e-05
4.71151e-06
9.5034e-07
2.96409e-07
1.8561e-07
1.65876e-07
1.62436e-07
1.61748e-07
1.61623e-07
1.6159e-07
1.61576e-07
1.61496e-07
1.61398e-07
1.60578e-07
1.59925e-07
1.53509e-07
1.50727e-07
1.11783e-07
1.07722e-07
-1.80875e-05
2.02873e-05
4.6357e-06
9.35347e-07
2.93537e-07
1.8511e-07
1.65798e-07
1.62438e-07
1.61765e-07
1.61644e-07
1.61612e-07
1.61598e-07
1.6152e-07
1.61423e-07
1.60615e-07
1.5997e-07
1.53621e-07
1.50846e-07
1.12077e-07
1.07929e-07
-1.79046e-05
2.05045e-05
4.6782e-06
9.42949e-07
2.94917e-07
1.85364e-07
1.6583e-07
1.62534e-07
1.61855e-07
1.61733e-07
1.617e-07
1.61685e-07
1.61606e-07
1.61508e-07
1.60672e-07
1.59961e-07
1.53541e-07
1.50741e-07
1.11484e-07
1.07307e-07
-1.81639e-05
2.05738e-05
4.75479e-06
9.5809e-07
2.97822e-07
1.85869e-07
1.6591e-07
1.62531e-07
1.61838e-07
1.61712e-07
1.61678e-07
1.61664e-07
1.61583e-07
1.61484e-07
1.60633e-07
1.59916e-07
1.53428e-07
1.50621e-07
1.11186e-07
1.07096e-07
-1.81682e-05
2.05734e-05
4.75571e-06
9.58342e-07
2.97887e-07
1.85882e-07
1.65913e-07
1.62532e-07
1.61838e-07
1.61712e-07
1.61678e-07
1.61663e-07
1.61583e-07
1.61483e-07
1.60632e-07
1.59915e-07
1.53426e-07
1.5062e-07
1.11183e-07
1.07094e-07
-1.81898e-05
2.05673e-05
4.75773e-06
9.58958e-07
2.98072e-07
1.85918e-07
1.6592e-07
1.62532e-07
1.61837e-07
1.61711e-07
1.61677e-07
1.61662e-07
1.61581e-07