/*--------------------------------*- C++ -*----------------------------------*\
  =========                 |
  \\      /  F ield         | OpenFOAM: The Open Source CFD Toolbox
   \\    /   O peration     | Website:  https://openfoam.org
    \\  /    A nd           | Version:  8
     \\/     M anipulation  |
\*---------------------------------------------------------------------------*/
FoamFile
{
    version     2.0;
    format      ascii;
    class       volScalarField;
    location    "3.4";
    object      H2;
}
// * * * * * * * * * * * * * * * * * * * * * * * * * * * * * * * * * * * * * //

dimensions      [0 1 -1 0 0 0 0];

internalField   nonuniform List<scalar> 
180000
(
-1.4131e-26
-6.85879e-23
4.97755e-18
2.30959e-13
6.29887e-09
-1.26842e-26
-8.46289e-24
6.80932e-18
2.75076e-13
7.16208e-09
-1.2683e-26
-7.92418e-24
6.82972e-18
2.75566e-13
7.17046e-09
-1.26867e-26
-6.43764e-24
6.88899e-18
2.77018e-13
7.19527e-09
-1.26997e-26
-6.79085e-24
6.87939e-18
2.76772e-13
7.18948e-09
-1.27401e-26
-7.91561e-24
6.84892e-18
2.76005e-13
7.17196e-09
-1.27467e-26
-8.11613e-24
6.84321e-18
2.75858e-13
7.16858e-09
-1.27633e-26
-8.61808e-24
6.82907e-18
2.75498e-13
7.16037e-09
-1.27658e-26
-8.69376e-24
6.8269e-18
2.75442e-13
7.15906e-09
-1.277e-26
-8.82334e-24
6.82321e-18
2.75347e-13
7.15687e-09
-1.277e-26
-8.82334e-24
6.82321e-18
2.75347e-13
7.15687e-09
-1.27658e-26
-8.69376e-24
6.8269e-18
2.75442e-13
7.15906e-09
-1.27633e-26
-8.61808e-24
6.82907e-18
2.75498e-13
7.16037e-09
-1.27467e-26
-8.11612e-24
6.84321e-18
2.75858e-13
7.16858e-09
-1.27401e-26
-7.91561e-24
6.84892e-18
2.76005e-13
7.17196e-09
-1.26997e-26
-6.79085e-24
6.87939e-18
2.76772e-13
7.18948e-09
-1.26867e-26
-6.43764e-24
6.88899e-18
2.77018e-13
7.19527e-09
-1.2683e-26
-7.92416e-24
6.82972e-18
2.75566e-13
7.17046e-09
-1.26842e-26
-8.46285e-24
6.80932e-18
2.75076e-13
7.16208e-09
-1.4131e-26
-6.85879e-23
4.97755e-18
2.30959e-13
6.29887e-09
-1.41311e-26
-6.85914e-23
4.97761e-18
2.31784e-13
7.75538e-09
-1.26844e-26
-8.46893e-24
6.80926e-18
2.75947e-13
8.71557e-09
-1.26832e-26
-7.93008e-24
6.82967e-18
2.76437e-13
8.72368e-09
-1.26869e-26
-6.44361e-24
6.88893e-18
2.77886e-13
8.74597e-09
-1.26998e-26
-6.7968e-24
6.87933e-18
2.77638e-13
8.73862e-09
-1.27402e-26
-7.92151e-24
6.84886e-18
2.76868e-13
8.71606e-09
-1.27468e-26
-8.12202e-24
6.84315e-18
2.7672e-13
8.71181e-09
-1.27635e-26
-8.62395e-24
6.82901e-18
2.76359e-13
8.70128e-09
-1.27659e-26
-8.69963e-24
6.82684e-18
2.76302e-13
8.69962e-09
-1.27702e-26
-8.8292e-24
6.82315e-18
2.76207e-13
8.69679e-09
-1.27702e-26
-8.8292e-24
6.82315e-18
2.76207e-13
8.69679e-09
-1.27659e-26
-8.69963e-24
6.82684e-18
2.76302e-13
8.69962e-09
-1.27635e-26
-8.62395e-24
6.82901e-18
2.76359e-13
8.70128e-09
-1.27468e-26
-8.12202e-24
6.84315e-18
2.7672e-13
8.71181e-09
-1.27402e-26
-7.92151e-24
6.84886e-18
2.76868e-13
8.71606e-09
-1.26998e-26
-6.7968e-24
6.87933e-18
2.77638e-13
8.73862e-09
-1.26869e-26
-6.4436e-24
6.88893e-18
2.77886e-13
8.74597e-09
-1.26832e-26
-7.93006e-24
6.82967e-18
2.76437e-13
8.72368e-09
-1.26844e-26
-8.4689e-24
6.80926e-18
2.75947e-13
8.71557e-09
-1.41311e-26
-6.85915e-23
4.97761e-18
2.31784e-13
7.75538e-09
-1.41312e-26
-6.85893e-23
4.98158e-18
2.38397e-13
1.7817e-08
-1.26845e-26
-8.47099e-24
6.81316e-18
2.82827e-13
1.92457e-08
-1.26833e-26
-7.93185e-24
6.83357e-18
2.83313e-13
1.92514e-08
-1.2687e-26
-6.4455e-24
6.8928e-18
2.84736e-13
1.92589e-08
-1.27e-26
-6.79867e-24
6.8832e-18
2.84482e-13
1.92435e-08
-1.27403e-26
-7.92332e-24
6.8527e-18
2.83687e-13
1.91947e-08
-1.27469e-26
-8.12382e-24
6.84699e-18
2.83536e-13
1.91859e-08
-1.27636e-26
-8.62573e-24
6.83284e-18
2.83163e-13
1.91632e-08
-1.27661e-26
-8.7014e-24
6.83067e-18
2.83105e-13
1.91597e-08
-1.27703e-26
-8.83096e-24
6.82698e-18
2.83006e-13
1.91534e-08
-1.27703e-26
-8.83096e-24
6.82698e-18
2.83006e-13
1.91534e-08
-1.27661e-26
-8.7014e-24
6.83067e-18
2.83105e-13
1.91597e-08
-1.27636e-26
-8.62572e-24
6.83284e-18
2.83163e-13
1.91632e-08
-1.27469e-26
-8.12382e-24
6.84699e-18
2.83536e-13
1.91859e-08
-1.27403e-26
-7.92332e-24
6.8527e-18
2.83687e-13
1.91947e-08
-1.27e-26
-6.79867e-24
6.8832e-18
2.84482e-13
1.92435e-08
-1.2687e-26
-6.4455e-24
6.8928e-18
2.84736e-13
1.92589e-08
-1.26833e-26
-7.93183e-24
6.83357e-18
2.83313e-13
1.92514e-08
-1.26845e-26
-8.47096e-24
6.81316e-18
2.82827e-13
1.92457e-08
-1.41312e-26
-6.85893e-23
4.98158e-18
2.38397e-13
1.7817e-08
-1.41313e-26
-6.8572e-23
5.00096e-18
2.63331e-13
4.96153e-08
-1.26847e-26
-8.46063e-24
6.83264e-18
3.08434e-13
5.20088e-08
-1.26834e-26
-7.92103e-24
6.85304e-18
3.08905e-13
5.20072e-08
-1.26871e-26
-6.43499e-24
6.91214e-18
3.10245e-13
5.19802e-08
-1.27001e-26
-6.78814e-24
6.90251e-18
3.09968e-13
5.19466e-08
-1.27404e-26
-7.91274e-24
6.87194e-18
3.09099e-13
5.18399e-08
-1.2747e-26
-8.11323e-24
6.86622e-18
3.08935e-13
5.18208e-08
-1.27637e-26
-8.61512e-24
6.85203e-18
3.08528e-13
5.17708e-08
-1.27662e-26
-8.69079e-24
6.84985e-18
3.08464e-13
5.17631e-08
-1.27704e-26
-8.82035e-24
6.84615e-18
3.08356e-13
5.17491e-08
-1.27704e-26
-8.82035e-24
6.84615e-18
3.08356e-13
5.17491e-08
-1.27662e-26
-8.69079e-24
6.84985e-18
3.08464e-13
5.17631e-08
-1.27637e-26
-8.61512e-24
6.85203e-18
3.08528e-13
5.17708e-08
-1.2747e-26
-8.11323e-24
6.86622e-18
3.08935e-13
5.18208e-08
-1.27404e-26
-7.91274e-24
6.87194e-18
3.09099e-13
5.18399e-08
-1.27001e-26
-6.78814e-24
6.90251e-18
3.09968e-13
5.19466e-08
-1.26871e-26
-6.43498e-24
6.91214e-18
3.10245e-13
5.19802e-08
-1.26834e-26
-7.92102e-24
6.85304e-18
3.08905e-13
5.20072e-08
-1.26846e-26
-8.4606e-24
6.83264e-18
3.08434e-13
5.20088e-08
-1.41313e-26
-6.8572e-23
5.00096e-18
2.63331e-13
4.96153e-08
-1.41313e-26
-6.85159e-23
5.05893e-18
3.25302e-13
1.13807e-07
-1.26847e-26
-8.41424e-24
6.8909e-18
3.71444e-13
1.17356e-07
-1.26835e-26
-7.87405e-24
6.91125e-18
3.71878e-13
1.1734e-07
-1.26872e-26
-6.38867e-24
6.96999e-18
3.73022e-13
1.17255e-07
-1.27001e-26
-6.74183e-24
6.9603e-18
3.72699e-13
1.17195e-07
-1.27405e-26
-7.86653e-24
6.9295e-18
3.71673e-13
1.17006e-07
-1.27471e-26
-8.06703e-24
6.92375e-18
3.71483e-13
1.16972e-07
-1.27638e-26
-8.56896e-24
6.90945e-18
3.71003e-13
1.16883e-07
-1.27662e-26
-8.64464e-24
6.90726e-18
3.70929e-13
1.16869e-07
-1.27705e-26
-8.77422e-24
6.90353e-18
3.708e-13
1.16844e-07
-1.27705e-26
-8.77422e-24
6.90353e-18
3.708e-13
1.16844e-07
-1.27662e-26
-8.64464e-24
6.90726e-18
3.70929e-13
1.16869e-07
-1.27638e-26
-8.56896e-24
6.90945e-18
3.71003e-13
1.16883e-07
-1.27471e-26
-8.06703e-24
6.92375e-18
3.71483e-13
1.16972e-07
-1.27405e-26
-7.86653e-24
6.9295e-18
3.71673e-13
1.17006e-07
-1.27001e-26
-6.74183e-24
6.9603e-18
3.72699e-13
1.17195e-07
-1.26872e-26
-6.38867e-24
6.96999e-18
3.73022e-13
1.17255e-07
-1.26835e-26
-7.87403e-24
6.91125e-18
3.71878e-13
1.1734e-07
-1.26847e-26
-8.4142e-24
6.8909e-18
3.71444e-13
1.17356e-07
-1.41313e-26
-6.8516e-23
5.05893e-18
3.25302e-13
1.13807e-07
-1.41313e-26
-6.83755e-23
5.19188e-18
4.45279e-13
2.14231e-07
-1.26848e-26
-8.28639e-24
7.02399e-18
4.92529e-13
2.18709e-07
-1.26835e-26
-7.74556e-24
7.04423e-18
4.92892e-13
2.18669e-07
-1.26872e-26
-6.26159e-24
7.10217e-18
4.93662e-13
2.18488e-07
-1.27001e-26
-6.61486e-24
7.09234e-18
4.93259e-13
2.18395e-07
-1.27405e-26
-7.73999e-24
7.06106e-18
4.91965e-13
2.18106e-07
-1.27471e-26
-7.94056e-24
7.05522e-18
4.9173e-13
2.18054e-07
-1.27638e-26
-8.44269e-24
7.04071e-18
4.91127e-13
2.17917e-07
-1.27662e-26
-8.5184e-24
7.03849e-18
4.91034e-13
2.17895e-07
-1.27705e-26
-8.64803e-24
7.03469e-18
4.9087e-13
2.17857e-07
-1.27705e-26
-8.64804e-24
7.03469e-18
4.9087e-13
2.17857e-07
-1.27662e-26
-8.5184e-24
7.03849e-18
4.91034e-13
2.17895e-07
-1.27638e-26
-8.4427e-24
7.04071e-18
4.91127e-13
2.17917e-07
-1.27471e-26
-7.94056e-24
7.05522e-18
4.9173e-13
2.18054e-07
-1.27405e-26
-7.73999e-24
7.06106e-18
4.91965e-13
2.18106e-07
-1.27001e-26
-6.61486e-24
7.09234e-18
4.93259e-13
2.18395e-07
-1.26872e-26
-6.26159e-24
7.10217e-18
4.93662e-13
2.18488e-07
-1.26835e-26
-7.74554e-24
7.04423e-18
4.92892e-13
2.18669e-07
-1.26848e-26
-8.28636e-24
7.024e-18
4.92529e-13
2.18709e-07
-1.41313e-26
-6.83755e-23
5.19188e-18
4.45279e-13
2.14231e-07
-1.4131e-26
-6.80747e-23
5.44937e-18
6.44225e-13
3.50792e-07
-1.26846e-26
-8.00209e-24
7.28079e-18
6.92206e-13
3.55727e-07
-1.26833e-26
-7.46069e-24
7.30077e-18
6.92448e-13
3.5565e-07
-1.2687e-26
-5.97952e-24
7.35717e-18
6.92584e-13
3.55304e-07
-1.27e-26
-6.33308e-24
7.34709e-18
6.92061e-13
3.55174e-07
-1.27403e-26
-7.45933e-24
7.31491e-18
6.90353e-13
3.54762e-07
-1.27469e-26
-7.66007e-24
7.30894e-18
6.90051e-13
3.54687e-07
-1.27636e-26
-8.16272e-24
7.29402e-18
6.89258e-13
3.54493e-07
-1.27661e-26
-8.23849e-24
7.29174e-18
6.89137e-13
3.54463e-07
-1.27703e-26
-8.36828e-24
7.28783e-18
6.88918e-13
3.54407e-07
-1.27703e-26
-8.36828e-24
7.28783e-18
6.88918e-13
3.54407e-07
-1.27661e-26
-8.23849e-24
7.29174e-18
6.89137e-13
3.54463e-07
-1.27636e-26
-8.16272e-24
7.29402e-18
6.89258e-13
3.54493e-07
-1.27469e-26
-7.66008e-24
7.30894e-18
6.90051e-13
3.54687e-07
-1.27403e-26
-7.45933e-24
7.31491e-18
6.90353e-13
3.54762e-07
-1.27e-26
-6.33308e-24
7.34709e-18
6.92061e-13
3.55174e-07
-1.2687e-26
-5.97952e-24
7.35717e-18
6.92584e-13
3.55304e-07
-1.26833e-26
-7.46068e-24
7.30077e-18
6.92448e-13
3.5565e-07
-1.26846e-26
-8.00207e-24
7.28079e-18
6.92206e-13
3.55727e-07
-1.4131e-26
-6.80747e-23
5.44937e-18
6.44225e-13
3.50792e-07
-1.41304e-26
-6.74991e-23
5.89392e-18
9.42684e-13
5.22687e-07
-1.26841e-26
-7.44925e-24
7.7226e-18
9.90504e-13
5.27484e-07
-1.26828e-26
-6.90752e-24
7.74214e-18
9.90559e-13
5.27353e-07
-1.26865e-26
-5.43148e-24
7.79586e-18
9.89701e-13
5.26743e-07
-1.26994e-26
-5.78567e-24
7.78536e-18
9.89006e-13
5.26566e-07
-1.27398e-26
-6.91421e-24
7.7517e-18
9.86702e-13
5.25997e-07
-1.27464e-26
-7.1153e-24
7.7455e-18
9.86304e-13
5.25896e-07
-1.27631e-26
-7.61898e-24
7.7299e-18
9.85237e-13
5.25629e-07
-1.27655e-26
-7.69491e-24
7.72752e-18
9.85076e-13
5.25587e-07
-1.27698e-26
-7.82499e-24
7.72341e-18
9.84779e-13
5.25511e-07
-1.27698e-26
-7.82499e-24
7.72341e-18
9.84779e-13
5.25511e-07
-1.27655e-26
-7.69491e-24
7.72752e-18
9.85076e-13
5.25587e-07
-1.27631e-26
-7.61898e-24
7.7299e-18
9.85237e-13
5.25629e-07
-1.27464e-26
-7.1153e-24
7.7455e-18
9.86304e-13
5.25896e-07
-1.27398e-26
-6.91421e-24
7.7517e-18
9.86702e-13
5.25997e-07
-1.26994e-26
-5.78567e-24
7.78536e-18
9.89006e-13
5.26566e-07
-1.26865e-26
-5.43149e-24
7.79586e-18
9.89701e-13
5.26743e-07
-1.26828e-26
-6.90751e-24
7.74214e-18
9.90559e-13
5.27353e-07
-1.26841e-26
-7.44923e-24
7.7226e-18
9.90504e-13
5.27484e-07
-1.41304e-26
-6.74991e-23
5.89392e-18
9.42684e-13
5.22687e-07
-1.41291e-26
-6.64885e-23
6.60074e-18
1.36086e-12
7.29225e-07
-1.26829e-26
-6.47124e-24
8.42299e-18
1.40704e-12
7.33181e-07
-1.26816e-26
-5.92967e-24
8.44179e-18
1.40683e-12
7.32976e-07
-1.26853e-26
-4.4625e-24
8.49122e-18
1.4045e-12
7.31973e-07
-1.26983e-26
-4.81781e-24
8.48007e-18
1.40357e-12
7.31738e-07
-1.27387e-26
-5.95049e-24
8.44409e-18
1.40044e-12
7.30965e-07
-1.27453e-26
-6.15222e-24
8.43752e-18
1.39991e-12
7.30832e-07
-1.27619e-26
-6.65777e-24
8.42087e-18
1.39847e-12
7.30472e-07
-1.27644e-26
-6.73397e-24
8.41834e-18
1.39825e-12
7.30417e-07
-1.27686e-26
-6.86459e-24
8.41393e-18
1.39784e-12
7.30314e-07
-1.27686e-26
-6.86459e-24
8.41393e-18
1.39784e-12
7.30314e-07
-1.27644e-26
-6.73397e-24
8.41834e-18
1.39825e-12
7.30417e-07
-1.27619e-26
-6.65778e-24
8.42087e-18
1.39847e-12
7.30472e-07
-1.27453e-26
-6.15222e-24
8.43752e-18
1.39991e-12
7.30832e-07
-1.27387e-26
-5.95049e-24
8.44409e-18
1.40044e-12
7.30965e-07
-1.26983e-26
-4.81781e-24
8.48007e-18
1.40357e-12
7.31738e-07
-1.26853e-26
-4.46251e-24
8.49122e-18
1.4045e-12
7.31973e-07
-1.26816e-26
-5.92967e-24
8.44179e-18
1.40683e-12
7.32976e-07
-1.26829e-26
-6.47122e-24
8.42299e-18
1.40704e-12
7.33181e-07
-1.41291e-26
-6.64885e-23
6.60074e-18
1.36086e-12
7.29225e-07
-1.41268e-26
-6.48292e-23
7.65728e-18
1.91822e-12
9.69113e-07
-1.26808e-26
-4.85987e-24
9.46718e-18
1.96062e-12
9.71378e-07
-1.26794e-26
-4.31928e-24
9.48486e-18
1.96003e-12
9.71076e-07
-1.26832e-26
-2.86659e-24
9.52774e-18
1.95563e-12
9.69524e-07
-1.26961e-26
-3.22377e-24
9.51564e-18
1.95439e-12
9.69218e-07
-1.27365e-26
-4.36336e-24
9.47623e-18
1.95015e-12
9.68184e-07
-1.27431e-26
-4.56613e-24
9.46913e-18
1.94946e-12
9.68012e-07
-1.27598e-26
-5.07482e-24
9.45092e-18
1.94751e-12
9.67534e-07
-1.27622e-26
-5.15145e-24
9.44817e-18
1.94722e-12
9.67462e-07
-1.27665e-26
-5.28297e-24
9.44331e-18
1.94667e-12
9.67325e-07
-1.27665e-26
-5.28297e-24
9.44331e-18
1.94667e-12
9.67325e-07
-1.27622e-26
-5.15145e-24
9.44817e-18
1.94722e-12
9.67462e-07
-1.27598e-26
-5.07482e-24
9.45092e-18
1.94751e-12
9.67534e-07
-1.27431e-26
-4.56613e-24
9.46913e-18
1.94946e-12
9.68012e-07
-1.27365e-26
-4.36336e-24
9.47623e-18
1.95015e-12
9.68184e-07
-1.26961e-26
-3.22377e-24
9.51564e-18
1.95439e-12
9.69218e-07
-1.26832e-26
-2.8666e-24
9.52774e-18
1.95563e-12
9.69524e-07
-1.26794e-26
-4.31928e-24
9.48486e-18
1.96003e-12
9.71076e-07
-1.26808e-26
-4.85986e-24
9.46718e-18
1.96062e-12
9.71378e-07
-1.41268e-26
-6.48292e-23
7.65728e-18
1.91822e-12
9.69113e-07
-1.41228e-26
-6.23082e-23
9.06244e-18
2.47414e-12
9.66826e-07
-1.26771e-26
-2.40779e-24
1.08541e-17
2.51276e-12
9.69145e-07
-1.26756e-26
-1.86933e-24
1.08702e-17
2.5118e-12
9.68847e-07
-1.26795e-26
-4.3858e-25
1.09044e-17
2.50533e-12
9.67317e-07
-1.26924e-26
-7.98618e-25
1.0891e-17
2.50379e-12
9.67014e-07
-1.27328e-26
-1.94879e-24
1.0847e-17
2.49846e-12
9.6599e-07
-1.27394e-26
-2.15315e-24
1.08393e-17
2.49759e-12
9.6582e-07
-1.27561e-26
-2.66662e-24
1.0819e-17
2.49514e-12
9.65347e-07
-1.27586e-26
-2.74392e-24
1.08159e-17
2.49478e-12
9.65276e-07
-1.27628e-26
-2.87682e-24
1.08105e-17
2.49409e-12
9.6514e-07
-1.27628e-26
-2.87682e-24
1.08105e-17
2.49409e-12
9.6514e-07
-1.27586e-26
-2.74392e-24
1.08159e-17
2.49478e-12
9.65276e-07
-1.27561e-26
-2.66663e-24
1.0819e-17
2.49514e-12
9.65347e-07
-1.27394e-26
-2.15315e-24
1.08393e-17
2.49759e-12
9.6582e-07
-1.27328e-26
-1.94879e-24
1.0847e-17
2.49846e-12
9.6599e-07
-1.26924e-26
-7.98624e-25
1.0891e-17
2.50379e-12
9.67014e-07
-1.26795e-26
-4.38589e-25
1.09044e-17
2.50533e-12
9.67317e-07
-1.26756e-26
-1.86933e-24
1.08702e-17
2.5118e-12
9.68847e-07
-1.26771e-26
-2.40778e-24
1.08541e-17
2.51276e-12
9.69145e-07
-1.41228e-26
-6.23082e-23
9.06244e-18
2.47414e-12
9.66826e-07
-1.41165e-26
-5.87135e-23
1.08151e-17
3.02858e-12
9.6461e-07
-1.26711e-26
1.09147e-24
1.25825e-17
3.06344e-12
9.66982e-07
-1.26697e-26
1.62633e-24
1.25967e-17
3.06211e-12
9.66688e-07
-1.26736e-26
3.02584e-24
1.26199e-17
3.0536e-12
9.65178e-07
-1.26865e-26
2.66172e-24
1.2605e-17
3.05176e-12
9.64879e-07
-1.2727e-26
1.49641e-24
1.25554e-17
3.04534e-12
9.63865e-07
-1.27336e-26
1.28977e-24
1.25468e-17
3.0443e-12
9.63696e-07
-1.27503e-26
7.69456e-25
1.2524e-17
3.04136e-12
9.63228e-07
-1.27527e-26
6.91201e-25
1.25206e-17
3.04093e-12
9.63157e-07
-1.2757e-26
5.56338e-25
1.25144e-17
3.04009e-12
9.63023e-07
-1.2757e-26
5.56337e-25
1.25144e-17
3.04009e-12
9.63023e-07
-1.27527e-26
6.91199e-25
1.25206e-17
3.04093e-12
9.63157e-07
-1.27503e-26
7.69453e-25
1.2524e-17
3.04136e-12
9.63228e-07
-1.27336e-26
1.28977e-24
1.25468e-17
3.0443e-12
9.63696e-07
-1.2727e-26
1.4964e-24
1.25554e-17
3.04534e-12
9.63865e-07
-1.26865e-26
2.66171e-24
1.2605e-17
3.05176e-12
9.64879e-07
-1.26736e-26
3.02583e-24
1.26199e-17
3.0536e-12
9.65178e-07
-1.26697e-26
1.62632e-24
1.25967e-17
3.06211e-12
9.66688e-07
-1.26711e-26
1.09147e-24
1.25825e-17
3.06344e-12
9.66982e-07
-1.41165e-26
-5.87135e-23
1.08151e-17
3.02858e-12
9.6461e-07
-1.41071e-26
-5.38338e-23
1.29139e-17
3.58148e-12
9.62459e-07
-1.26622e-26
5.84343e-24
1.46511e-17
3.61258e-12
9.64882e-07
-1.26607e-26
6.37293e-24
1.46631e-17
3.61089e-12
9.64591e-07
-1.26647e-26
7.73008e-24
1.46732e-17
3.60036e-12
9.63102e-07
-1.26776e-26
7.36042e-24
1.46564e-17
3.59822e-12
9.62805e-07
-1.27181e-26
6.17451e-24
1.46001e-17
3.59072e-12
9.61801e-07
-1.27248e-26
5.9648e-24
1.45905e-17
3.58951e-12
9.61634e-07
-1.27415e-26
5.43518e-24
1.45646e-17
3.58607e-12
9.6117e-07
-1.2744e-26
5.35563e-24
1.45608e-17
3.58558e-12
9.611e-07
-1.27482e-26
5.2181e-24
1.45537e-17
3.5846e-12
9.60967e-07
-1.27482e-26
5.2181e-24
1.45537e-17
3.5846e-12
9.60967e-07
-1.2744e-26
5.35563e-24
1.45608e-17
3.58558e-12
9.611e-07
-1.27415e-26
5.43517e-24
1.45646e-17
3.58607e-12
9.6117e-07
-1.27248e-26
5.9648e-24
1.45905e-17
3.58951e-12
9.61634e-07
-1.27181e-26
6.1745e-24
1.46001e-17
3.59072e-12
9.61801e-07
-1.26776e-26
7.36041e-24
1.46564e-17
3.59822e-12
9.62805e-07
-1.26647e-26
7.73007e-24
1.46732e-17
3.60036e-12
9.63102e-07
-1.26607e-26
6.37291e-24
1.46631e-17
3.61089e-12
9.64591e-07
-1.26622e-26
5.84342e-24
1.46511e-17
3.61258e-12
9.64882e-07
-1.41071e-26
-5.38338e-23
1.29139e-17
3.58148e-12
9.62459e-07
-1.40937e-26
-4.7459e-23
1.53576e-17
4.13276e-12
9.60369e-07
-1.26493e-26
1.20526e-23
1.70586e-17
4.1601e-12
9.6284e-07
-1.26478e-26
1.25747e-23
1.7068e-17
4.15806e-12
9.62553e-07
-1.26519e-26
1.38766e-23
1.70628e-17
4.14553e-12
9.61083e-07
-1.26649e-26
1.34997e-23
1.7044e-17
4.1431e-12
9.60789e-07
-1.27055e-26
1.22869e-23
1.69799e-17
4.13452e-12
9.59794e-07
-1.27121e-26
1.20731e-23
1.6969e-17
4.13315e-12
9.59629e-07
-1.27289e-26
1.15314e-23
1.69396e-17
4.12922e-12
9.59169e-07
-1.27313e-26
1.14501e-23
1.69353e-17
4.12865e-12
9.591e-07
-1.27356e-26
1.13091e-23
1.69272e-17
4.12754e-12
9.58968e-07
-1.27356e-26
1.13091e-23
1.69272e-17
4.12754e-12
9.58968e-07
-1.27313e-26
1.14501e-23
1.69353e-17
4.12865e-12
9.591e-07
-1.27289e-26
1.15313e-23
1.69396e-17
4.12922e-12
9.59169e-07
-1.27121e-26
1.20731e-23
1.6969e-17
4.13315e-12
9.59629e-07
-1.27055e-26
1.22868e-23
1.69799e-17
4.13452e-12
9.59794e-07
-1.26649e-26
1.34997e-23
1.7044e-17
4.1431e-12
9.60789e-07
-1.26519e-26
1.38766e-23
1.70628e-17
4.14553e-12
9.61083e-07
-1.26478e-26
1.25747e-23
1.7068e-17
4.15806e-12
9.62553e-07
-1.26493e-26
1.20526e-23
1.70586e-17
4.1601e-12
9.6284e-07
-1.40937e-26
-4.7459e-23
1.53576e-17
4.13276e-12
9.60369e-07
-1.4075e-26
-3.93797e-23
1.81448e-17
4.68234e-12
9.58335e-07
-1.26314e-26
1.99226e-23
1.98036e-17
4.70593e-12
9.60852e-07
-1.26298e-26
2.04348e-23
1.98101e-17
4.70354e-12
9.60569e-07
-1.26342e-26
2.16668e-23
1.97875e-17
4.68903e-12
9.59117e-07
-1.26472e-26
2.12808e-23
1.97662e-17
4.6863e-12
9.58826e-07
-1.26879e-26
2.00338e-23
1.96932e-17
4.67666e-12
9.57841e-07
-1.26945e-26
1.9815e-23
1.96811e-17
4.67513e-12
9.57676e-07
-1.27113e-26
1.92578e-23
1.96476e-17
4.67072e-12
9.57221e-07
-1.27138e-26
1.91744e-23
1.96427e-17
4.67008e-12
9.57152e-07
-1.27181e-26
1.9029e-23
1.96335e-17
4.66882e-12
9.57022e-07
-1.27181e-26
1.9029e-23
1.96335e-17
4.66882e-12
9.57022e-07
-1.27138e-26
1.91744e-23
1.96427e-17
4.67008e-12
9.57152e-07
-1.27113e-26
1.92578e-23
1.96476e-17
4.67072e-12
9.57221e-07
-1.26945e-26
1.9815e-23
1.96811e-17
4.67513e-12
9.57676e-07
-1.26879e-26
2.00338e-23
1.96932e-17
4.67666e-12
9.57841e-07
-1.26472e-26
2.12807e-23
1.97662e-17
4.6863e-12
9.58826e-07
-1.26342e-26
2.16667e-23
1.97875e-17
4.68903e-12
9.59117e-07
-1.26298e-26
2.04348e-23
1.981e-17
4.70354e-12
9.60569e-07
-1.26314e-26
1.99226e-23
1.98036e-17
4.70593e-12
9.60852e-07
-1.4075e-26
-3.93797e-23
1.81448e-17
4.68234e-12
9.58335e-07
-1.40499e-26
-2.93878e-23
2.1274e-17
5.23013e-12
9.56352e-07
-1.26073e-26
2.96556e-23
2.28846e-17
5.24999e-12
9.58915e-07
-1.26057e-26
3.01553e-23
2.28877e-17
5.24725e-12
9.58635e-07
-1.26104e-26
3.1301e-23
2.28456e-17
5.23078e-12
9.57201e-07
-1.26234e-26
3.09037e-23
2.28217e-17
5.22776e-12
9.56912e-07
-1.26642e-26
2.96145e-23
2.27387e-17
5.21706e-12
9.55936e-07
-1.26709e-26
2.93895e-23
2.27251e-17
5.21537e-12
9.55773e-07
-1.26878e-26
2.88133e-23
2.26872e-17
5.21048e-12
9.55321e-07
-1.26903e-26
2.87273e-23
2.26817e-17
5.20977e-12
9.55253e-07
-1.26945e-26
2.85764e-23
2.26712e-17
5.20838e-12
9.55124e-07
-1.26945e-26
2.85764e-23
2.26712e-17
5.20838e-12
9.55124e-07
-1.26903e-26
2.87273e-23
2.26817e-17
5.20977e-12
9.55253e-07
-1.26878e-26
2.88133e-23
2.26872e-17
5.21048e-12
9.55321e-07
-1.26709e-26
2.93895e-23
2.27251e-17
5.21537e-12
9.55773e-07
-1.26642e-26
2.96145e-23
2.27387e-17
5.21706e-12
9.55936e-07
-1.26234e-26
3.09037e-23
2.28217e-17
5.22776e-12
9.56912e-07
-1.26104e-26
3.1301e-23
2.28456e-17
5.23078e-12
9.57201e-07
-1.26057e-26
3.01553e-23
2.28876e-17
5.24725e-12
9.58635e-07
-1.26073e-26
2.96556e-23
2.28846e-17
5.24999e-12
9.58915e-07
-1.40499e-26
-2.93878e-23
2.1274e-17
5.23013e-12
9.56352e-07
-1.4017e-26
-1.7276e-23
2.47435e-17
5.77604e-12
9.54418e-07
-1.25757e-26
4.14531e-23
2.62999e-17
5.79217e-12
9.57023e-07
-1.25742e-26
4.19373e-23
2.62992e-17
5.78909e-12
9.56747e-07
-1.25792e-26
4.29785e-23
2.62356e-17
5.77069e-12
9.55331e-07
-1.25923e-26
4.25677e-23
2.62088e-17
5.76739e-12
9.55044e-07
-1.26332e-26
4.12274e-23
2.61149e-17
5.75564e-12
9.54076e-07
-1.26399e-26
4.09948e-23
2.60996e-17
5.75379e-12
9.53915e-07
-1.26569e-26
4.03955e-23
2.60567e-17
5.74842e-12
9.53467e-07
-1.26594e-26
4.03063e-23
2.60505e-17
5.74765e-12
9.53399e-07
-1.26637e-26
4.01488e-23
2.60386e-17
5.74612e-12
9.53271e-07
-1.26637e-26
4.01488e-23
2.60386e-17
5.74612e-12
9.53271e-07
-1.26594e-26
4.03063e-23
2.60505e-17
5.74765e-12
9.53399e-07
-1.26569e-26
4.03955e-23
2.60567e-17
5.74842e-12
9.53467e-07
-1.26399e-26
4.09948e-23
2.60996e-17
5.75379e-12
9.53915e-07
-1.26332e-26
4.12273e-23
2.61149e-17
5.75564e-12
9.54076e-07
-1.25923e-26
4.25677e-23
2.62088e-17
5.76739e-12
9.55044e-07
-1.25792e-26
4.29785e-23
2.62356e-17
5.77069e-12
9.55331e-07
-1.25742e-26
4.19372e-23
2.62992e-17
5.78909e-12
9.56747e-07
-1.25757e-26
4.1453e-23
2.62999e-17
5.79217e-12
9.57023e-07
-1.4017e-26
-1.72761e-23
2.47435e-17
5.77604e-12
9.54418e-07
-1.39748e-26
-2.83851e-24
2.85518e-17
6.31999e-12
9.52527e-07
-1.25352e-26
5.55149e-23
3.00478e-17
6.3324e-12
9.55173e-07
-1.25336e-26
5.59803e-23
3.00431e-17
6.32899e-12
9.549e-07
-1.25391e-26
5.68975e-23
2.9956e-17
6.30868e-12
9.53501e-07
-1.25523e-26
5.64705e-23
2.99259e-17
6.30509e-12
9.53216e-07
-1.25935e-26
5.50693e-23
2.982e-17
6.29231e-12
9.52257e-07
-1.26002e-26
5.48278e-23
2.98029e-17
6.2903e-12
9.52097e-07
-1.26172e-26
5.42009e-23
2.97546e-17
6.28446e-12
9.51652e-07
-1.26197e-26
5.41081e-23
2.97476e-17
6.28363e-12
9.51586e-07
-1.26241e-26
5.39427e-23
2.97341e-17
6.28196e-12
9.51458e-07
-1.26241e-26
5.39427e-23
2.97341e-17
6.28196e-12
9.51458e-07
-1.26197e-26
5.41081e-23
2.97476e-17
6.28363e-12
9.51586e-07
-1.26172e-26
5.42009e-23
2.97546e-17
6.28446e-12
9.51652e-07
-1.26002e-26
5.48278e-23
2.98029e-17
6.2903e-12
9.52097e-07
-1.25935e-26
5.50692e-23
2.982e-17
6.29231e-12
9.52257e-07
-1.25523e-26
5.64704e-23
2.99259e-17
6.30509e-12
9.53216e-07
-1.25391e-26
5.68974e-23
2.9956e-17
6.30868e-12
9.53501e-07
-1.25336e-26
5.59803e-23
3.00431e-17
6.32899e-12
9.549e-07
-1.25352e-26
5.55149e-23
3.00478e-17
6.3324e-12
9.55173e-07
-1.39748e-26
-2.83853e-24
2.85518e-17
6.31999e-12
9.52527e-07
-1.39217e-26
1.41297e-23
3.2697e-17
6.86188e-12
9.5067e-07
-1.24841e-26
7.204e-23
3.41266e-17
6.87058e-12
9.53356e-07
-1.24826e-26
7.24831e-23
3.41175e-17
6.86684e-12
9.53086e-07
-1.24887e-26
7.32547e-23
3.40049e-17
6.84464e-12
9.51703e-07
-1.25019e-26
7.28088e-23
3.39713e-17
6.84078e-12
9.51421e-07
-1.25434e-26
7.13361e-23
3.38523e-17
6.82697e-12
9.5047e-07
-1.25501e-26
7.10842e-23
3.38334e-17
6.82481e-12
9.50311e-07
-1.25673e-26
7.0425e-23
3.37791e-17
6.81851e-12
9.4987e-07
-1.25698e-26
7.03278e-23
3.37713e-17
6.8176e-12
9.49804e-07
-1.25742e-26
7.01531e-23
3.37562e-17
6.81581e-12
9.49678e-07
-1.25742e-26
7.01531e-23
3.37562e-17
6.81581e-12
9.49678e-07
-1.25698e-26
7.03278e-23
3.37713e-17
6.8176e-12
9.49804e-07
-1.25673e-26
7.0425e-23
3.37791e-17
6.81851e-12
9.4987e-07
-1.25501e-26
7.10841e-23
3.38334e-17
6.82481e-12
9.50311e-07
-1.25434e-26
7.13361e-23
3.38523e-17
6.82697e-12
9.5047e-07
-1.25019e-26
7.28087e-23
3.39713e-17
6.84078e-12
9.51421e-07
-1.24887e-26
7.32547e-23
3.40049e-17
6.84464e-12
9.51703e-07
-1.24826e-26
7.2483e-23
3.41175e-17
6.86684e-12
9.53086e-07
-1.24841e-26
7.20399e-23
3.41266e-17
6.87058e-12
9.53356e-07
-1.39217e-26
1.41297e-23
3.2697e-17
6.86188e-12
9.5067e-07
-1.38559e-26
3.38321e-23
3.71774e-17
7.4016e-12
9.48813e-07
-1.24208e-26
9.12258e-23
3.85344e-17
7.4066e-12
9.51539e-07
-1.24193e-26
9.16427e-23
3.85206e-17
7.40253e-12
9.51272e-07
-1.24261e-26
9.22458e-23
3.83805e-17
7.37848e-12
9.49906e-07
-1.24395e-26
9.1778e-23
3.83432e-17
7.37434e-12
9.49626e-07
-1.24813e-26
9.02225e-23
3.82102e-17
7.35952e-12
9.48683e-07
-1.24881e-26
8.99585e-23
3.81891e-17
7.35721e-12
9.48525e-07
-1.25055e-26
8.92619e-23
3.81285e-17
7.35044e-12
9.48088e-07
-1.2508e-26
8.91596e-23
3.81199e-17
7.34947e-12
9.48022e-07
-1.25124e-26
8.89742e-23
3.81029e-17
7.34754e-12
9.47897e-07
-1.25124e-26
8.89742e-23
3.81029e-17
7.34754e-12
9.47897e-07
-1.2508e-26
8.91596e-23
3.81199e-17
7.34947e-12
9.48022e-07
-1.25055e-26
8.92619e-23
3.81285e-17
7.35044e-12
9.48088e-07
-1.24881e-26
8.99584e-23
3.81891e-17
7.35721e-12
9.48525e-07
-1.24813e-26
9.02224e-23
3.82102e-17
7.35952e-12
9.48683e-07
-1.24395e-26
9.1778e-23
3.83432e-17
7.37434e-12
9.49626e-07
-1.24261e-26
9.22458e-23
3.83805e-17
7.37848e-12
9.49906e-07
-1.24193e-26
9.16427e-23
3.85206e-17
7.40253e-12
9.51272e-07
-1.24208e-26
9.12257e-23
3.85344e-17
7.4066e-12
9.51539e-07
-1.38559e-26
3.38321e-23
3.71774e-17
7.4016e-12
9.48813e-07
0.000288398
4.82007e-05
1.22009e-06
4.34052e-09
-5.56691e-12
3.91643e-14
4.79742e-14
4.81828e-14
4.82279e-14
4.82358e-14
4.82395e-14
4.82636e-14
4.83857e-14
4.8533e-14
4.9743e-14
5.07725e-14
6.15609e-14
6.7381e-14
2.15199e-13
2.51499e-13
0.000319009
5.41941e-05
1.44324e-06
6.04069e-09
-3.9847e-12
3.88114e-14
4.79672e-14
4.81809e-14
4.82269e-14
4.8235e-14
4.82374e-14
4.82569e-14
4.83817e-14
4.85315e-14
4.97623e-14
5.08042e-14
6.1735e-14
6.75937e-14
2.17131e-13
2.53859e-13
0.00031922
5.42204e-05
1.44327e-06
6.04137e-09
-3.97786e-12
3.88149e-14
4.79671e-14
4.81809e-14
4.8227e-14
4.82351e-14
4.82374e-14
4.82573e-14
4.83822e-14
4.85321e-14
4.97633e-14
5.08055e-14
6.17384e-14
6.75973e-14
2.1715e-13
2.53878e-13
0.000319856
5.42325e-05
1.43744e-06
5.99975e-09
-3.95857e-12
3.88748e-14
4.79668e-14
4.81809e-14
4.82271e-14
4.82352e-14
4.82378e-14
4.82592e-14
4.83843e-14
4.85345e-14
4.97671e-14
5.08099e-14
6.17498e-14
6.76094e-14
2.1721e-13
2.53932e-13
0.000319591
5.41764e-05
1.43496e-06
5.98083e-09
-3.97658e-12
3.88774e-14
4.79668e-14
4.81809e-14
4.82271e-14
4.82352e-14
4.82378e-14
4.82592e-14
4.83844e-14
4.85345e-14
4.97673e-14
5.08101e-14
6.17501e-14
6.76098e-14
2.17212e-13
2.53933e-13
0.000318816
5.39869e-05
1.42611e-06
5.91382e-09
-4.03702e-12
3.88887e-14
4.79669e-14
4.8181e-14
4.82271e-14
4.82352e-14
4.82378e-14
4.82593e-14
4.83845e-14
4.85347e-14
4.97675e-14
5.08104e-14
6.17507e-14
6.76104e-14
2.17214e-13
2.53934e-13
0.000318665
5.39552e-05
1.42476e-06
5.9035e-09
-4.0477e-12
3.88893e-14
4.79669e-14
4.8181e-14
4.82271e-14
4.82352e-14
4.82378e-14
4.82593e-14
4.83845e-14
4.85347e-14
4.97675e-14
5.08104e-14
6.17507e-14
6.76104e-14
2.17214e-13
2.53934e-13
0.000318303
5.38687e-05
1.42082e-06
5.87346e-09
-4.07735e-12
3.88916e-14
4.79669e-14
4.8181e-14
4.82271e-14
4.82352e-14
4.82378e-14
4.82593e-14
4.83846e-14
4.85347e-14
4.97675e-14
5.08104e-14
6.17508e-14
6.76104e-14
2.17214e-13
2.53934e-13
0.000318244
5.38562e-05
1.42028e-06
5.86939e-09
-4.08172e-12
3.88916e-14
4.79669e-14
4.8181e-14
4.82271e-14
4.82352e-14
4.82378e-14
4.82593e-14
4.83846e-14
4.85347e-14
4.97675e-14
5.08104e-14
6.17508e-14
6.76104e-14
2.17214e-13
2.53934e-13
0.000318146
5.38326e-05
1.41921e-06
5.86117e-09
-4.09008e-12
3.8892e-14
4.79669e-14
4.8181e-14
4.82271e-14
4.82352e-14
4.82378e-14
4.82593e-14
4.83846e-14
4.85347e-14
4.97675e-14
5.08104e-14
6.17508e-14
6.76104e-14
2.17214e-13
2.53934e-13
0.000318146
5.38326e-05
1.41921e-06
5.86117e-09
-4.09008e-12
3.8892e-14
4.79669e-14
4.8181e-14
4.82271e-14
4.82352e-14
4.82378e-14
4.82593e-14
4.83846e-14
4.85347e-14
4.97675e-14
5.08104e-14
6.17508e-14
6.76104e-14
2.17214e-13
2.53934e-13
0.000318244
5.38562e-05
1.42028e-06
5.86939e-09
-4.08172e-12
3.88916e-14
4.79669e-14
4.8181e-14
4.82271e-14
4.82352e-14
4.82378e-14
4.82593e-14
4.83846e-14
4.85347e-14
4.97675e-14
5.08104e-14
6.17508e-14
6.76104e-14
2.17214e-13
2.53934e-13
0.000318303
5.38687e-05
1.42082e-06
5.87346e-09
-4.07735e-12
3.88916e-14
4.79669e-14
4.8181e-14
4.82271e-14
4.82352e-14
4.82378e-14
4.82593e-14
4.83846e-14
4.85347e-14
4.97675e-14
5.08104e-14
6.17508e-14
6.76104e-14
2.17214e-13
2.53934e-13
0.000318665
5.39552e-05
1.42476e-06
5.9035e-09
-4.0477e-12
3.88893e-14
4.79669e-14
4.8181e-14
4.82271e-14
4.82352e-14
4.82378e-14
4.82593e-14
4.83845e-14
4.85347e-14
4.97675e-14
5.08104e-14
6.17507e-14
6.76104e-14
2.17214e-13
2.53934e-13
0.000318816
5.39869e-05
1.42611e-06
5.91382e-09
-4.03702e-12
3.88887e-14
4.79669e-14
4.8181e-14
4.82271e-14
4.82352e-14
4.82378e-14
4.82593e-14
4.83845e-14
4.85347e-14
4.97675e-14
5.08104e-14
6.17507e-14
6.76104e-14
2.17214e-13
2.53934e-13
0.000319591
5.41764e-05
1.43496e-06
5.98083e-09
-3.97658e-12
3.88774e-14
4.79668e-14
4.81809e-14
4.82271e-14
4.82352e-14
4.82378e-14
4.82592e-14
4.83844e-14
4.85345e-14
4.97673e-14
5.08101e-14
6.17501e-14
6.76098e-14
2.17212e-13
2.53933e-13
0.000319856
5.42325e-05
1.43744e-06
5.99975e-09
-3.95857e-12
3.88748e-14
4.79668e-14
4.81809e-14
4.82271e-14
4.82352e-14
4.82378e-14
4.82592e-14
4.83843e-14
4.85345e-14
4.97671e-14
5.08099e-14
6.17498e-14
6.76094e-14
2.1721e-13
2.53932e-13
0.00031922
5.42204e-05
1.44327e-06
6.04137e-09
-3.97786e-12
3.88149e-14
4.79671e-14
4.81809e-14
4.8227e-14
4.82351e-14
4.82374e-14
4.82573e-14
4.83822e-14
4.85321e-14
4.97633e-14
5.08055e-14
6.17384e-14
6.75973e-14
2.1715e-13
2.53878e-13
0.000319009
5.41941e-05
1.44324e-06
6.04069e-09
-3.9847e-12
3.88114e-14
4.79672e-14
4.81809e-14
4.82269e-14
4.8235e-14
4.82374e-14
4.82569e-14
4.83817e-14
4.85315e-14
4.97623e-14
5.08042e-14
6.1735e-14
6.75937e-14
2.17131e-13
2.53859e-13
0.000288398
4.82007e-05
1.22009e-06
4.34052e-09
-5.56691e-12
3.91643e-14
4.79742e-14
4.81828e-14
4.82279e-14
4.82358e-14
4.82395e-14
4.82636e-14
4.83857e-14
4.8533e-14
4.9743e-14
5.07725e-14
6.15609e-14
6.7381e-14
2.15199e-13
2.51499e-13
0.005941
0.00140978
5.59155e-05
3.80895e-07
2.48863e-10
2.10874e-12
2.30642e-12
2.31786e-12