/*--------------------------------*- C++ -*----------------------------------*\
  =========                 |
  \\      /  F ield         | OpenFOAM: The Open Source CFD Toolbox
   \\    /   O peration     | Website:  https://openfoam.org
    \\  /    A nd           | Version:  8
     \\/     M anipulation  |
\*---------------------------------------------------------------------------*/
FoamFile
{
    version     2.0;
    format      ascii;
    class       volScalarField;
    location    "3.4";
    object      p;
}
// * * * * * * * * * * * * * * * * * * * * * * * * * * * * * * * * * * * * * //

dimensions      [0 2 -2 0 0 0 0];

internalField   nonuniform List<scalar> 
180000
(
0.000899227
0.000838374
0.000876581
0.000746789
0.00081547
0.000884701
0.000824077
0.000862002
0.000733533
0.000801072
0.000883919
0.000823331
0.000861221
0.000732879
0.000800335
0.000879681
0.000819255
0.000856966
0.000729282
0.000796342
0.000879158
0.000818758
0.000856439
0.000728846
0.000795847
0.000877246
0.000816932
0.000854515
0.000727242
0.000794046
0.00087696
0.000816659
0.000854225
0.000727002
0.000793773
0.000876101
0.00081584
0.000853359
0.000726282
0.000792961
0.00087598
0.000815725
0.000853236
0.000726181
0.000792845
0.000875734
0.00081549
0.000852987
0.000725974
0.000792612
0.000875734
0.00081549
0.000852987
0.000725974
0.000792612
0.00087598
0.000815725
0.000853236
0.000726181
0.000792845
0.000876101
0.00081584
0.000853359
0.000726282
0.000792961
0.00087696
0.000816659
0.000854225
0.000727002
0.000793773
0.000877246
0.000816932
0.000854515
0.000727242
0.000794046
0.000879158
0.000818758
0.000856439
0.000728846
0.000795847
0.000879681
0.000819255
0.000856966
0.000729282
0.000796342
0.000883919
0.000823331
0.000861221
0.000732879
0.000800335
0.000884701
0.000824077
0.000862002
0.000733533
0.000801072
0.000899227
0.000838374
0.000876581
0.000746789
0.00081547
0.000734185
0.000705903
0.000724594
0.000655558
0.000694747
0.000727823
0.000698751
0.000717869
0.000647753
0.000687207
0.000727474
0.00069837
0.000717501
0.000647362
0.000686814
0.000725535
0.000696251
0.000715455
0.000645173
0.000684644
0.000725297
0.000695993
0.000715202
0.000644908
0.000684376
0.000724415
0.000695037
0.000714269
0.000643926
0.00068339
0.000724283
0.000694894
0.000714129
0.00064378
0.000683241
0.000723885
0.000694464
0.000713707
0.000643338
0.000682796
0.000723829
0.000694404
0.000713648
0.000643276
0.000682732
0.000723715
0.00069428
0.000713526
0.00064315
0.000682604
0.000723715
0.00069428
0.000713526
0.00064315
0.000682604
0.000723829
0.000694404
0.000713648
0.000643276
0.000682732
0.000723885
0.000694464
0.000713707
0.000643338
0.000682796
0.000724283
0.000694894
0.000714129
0.00064378
0.000683241
0.000724415
0.000695037
0.000714269
0.000643926
0.00068339
0.000725297
0.000695993
0.000715202
0.000644908
0.000684376
0.000725535
0.000696251
0.000715455
0.000645173
0.000684644
0.000727474
0.00069837
0.000717501
0.000647362
0.000686814
0.000727823
0.000698751
0.000717869
0.000647753
0.000687207
0.000734185
0.000705903
0.000724594
0.000655558
0.000694747
0.000526927
0.000504488
0.00051977
0.000465852
0.000498797
0.000521822
0.000499022
0.000514484
0.000460182
0.000493101
0.000521542
0.000498731
0.000514195
0.000459896
0.000492803
0.000519956
0.000497075
0.000512553
0.000458262
0.000491121
0.000519763
0.000496876
0.000512353
0.000458067
0.000490915
0.000519043
0.00049613
0.000511605
0.000457335
0.000490152
0.000518937
0.00049602
0.000511494
0.000457227
0.000490037
0.000518612
0.000495684
0.000511157
0.000456897
0.000489693
0.000518567
0.000495638
0.00051111
0.000456851
0.000489644
0.000518474
0.000495541
0.000511013
0.000456757
0.000489545
0.000518474
0.000495541
0.000511013
0.000456757
0.000489545
0.000518567
0.000495638
0.00051111
0.000456851
0.000489644
0.000518612
0.000495684
0.000511157
0.000456897
0.000489693
0.000518937
0.00049602
0.000511494
0.000457227
0.000490037
0.000519043
0.00049613
0.000511605
0.000457335
0.000490152
0.000519763
0.000496876
0.000512353
0.000458067
0.000490915
0.000519956
0.000497075
0.000512553
0.000458262
0.000491121
0.000521542
0.000498731
0.000514195
0.000459896
0.000492803
0.000521822
0.000499022
0.000514484
0.000460182
0.000493101
0.000526927
0.000504488
0.00051977
0.000465852
0.000498797
0.000492269
0.000466079
0.000484019
0.000423432
0.00046266
0.000486192
0.000459924
0.000477862
0.000417481
0.000456375
0.000485857
0.000459595
0.000477524
0.00041718
0.000456043
0.000483965
0.000457719
0.000475605
0.000415443
0.000454166
0.000483735
0.000457494
0.000475371
0.000415236
0.000453937
0.000482878
0.000456651
0.0004745
0.00041446
0.000453086
0.000482752
0.000456527
0.00047437
0.000414345
0.000452959
0.000482366
0.000456148
0.000473978
0.000413996
0.000452576
0.000482313
0.000456095
0.000473923
0.000413948
0.000452522
0.000482202
0.000455987
0.00047381
0.000413847
0.000452411
0.000482202
0.000455987
0.00047381
0.000413847
0.000452411
0.000482313
0.000456095
0.000473923
0.000413948
0.000452522
0.000482366
0.000456148
0.000473978
0.000413996
0.000452576
0.000482752
0.000456527
0.00047437
0.000414345
0.000452959
0.000482878
0.000456651
0.0004745
0.00041446
0.000453086
0.000483735
0.000457494
0.000475371
0.000415236
0.000453937
0.000483965
0.000457719
0.000475605
0.000415443
0.000454166
0.000485857
0.000459595
0.000477524
0.00041718
0.000456043
0.000486192
0.000459924
0.000477862
0.000417481
0.000456375
0.000492269
0.000466079
0.000484019
0.000423432
0.00046266
0.000515195
0.000487507
0.00050682
0.000442081
0.000486899
0.000508792
0.000481021
0.000500333
0.00043582
0.000480298
0.000508436
0.00048067
0.000499973
0.000435499
0.000479944
0.000506411
0.000478663
0.00049792
0.000433643
0.000477933
0.000506166
0.000478422
0.00049767
0.000433422
0.000477688
0.000505249
0.000477519
0.000496737
0.000432591
0.000476777
0.000505114
0.000477387
0.000496599
0.000432469
0.000476641
0.000504701
0.000476981
0.000496178
0.000432095
0.00047623
0.000504644
0.000476925
0.00049612
0.000432044
0.000476172
0.000504525
0.000476808
0.000495999
0.000431936
0.000476054
0.000504525
0.000476808
0.000495999
0.000431936
0.000476054
0.000504644
0.000476925
0.00049612
0.000432044
0.000476172
0.000504701
0.000476981
0.000496178
0.000432095
0.00047623
0.000505114
0.000477387
0.000496599
0.000432469
0.000476641
0.000505249
0.000477519
0.000496737
0.000432591
0.000476777
0.000506166
0.000478422
0.00049767
0.000433422
0.000477688
0.000506411
0.000478663
0.00049792
0.000433643
0.000477933
0.000508436
0.00048067
0.000499973
0.000435499
0.000479944
0.000508792
0.000481021
0.000500333
0.00043582
0.000480298
0.000515195
0.000487507
0.00050682
0.000442081
0.000486899
0.000527987
0.000500867
0.000520271
0.000455593
0.000504033
0.000521766
0.000494519
0.000513953
0.000449406
0.000497574
0.000521416
0.000494173
0.000513598
0.000449085
0.000497222
0.000519408
0.000492168
0.000511556
0.000447213
0.000495205
0.000519166
0.000491928
0.000511309
0.000446991
0.00049496
0.000518255
0.000491025
0.00051038
0.000446152
0.000494045
0.000518121
0.000490893
0.000510243
0.000446029
0.000493909
0.000517711
0.000490487
0.000509824
0.000445652
0.000493495
0.000517654
0.000490431
0.000509766
0.0004456
0.000493438
0.000517536
0.000490315
0.000509645
0.000445491
0.000493319
0.000517536
0.000490315
0.000509645
0.000445491
0.000493319
0.000517654
0.000490431
0.000509766
0.0004456
0.000493438
0.000517711
0.000490487
0.000509824
0.000445652
0.000493495
0.000518121
0.000490893
0.000510243
0.000446029
0.000493909
0.000518255
0.000491025
0.00051038
0.000446152
0.000494045
0.000519166
0.000491928
0.000511309
0.000446991
0.00049496
0.000519408
0.000492168
0.000511556
0.000447213
0.000495205
0.000521416
0.000494173
0.000513598
0.000449085
0.000497222
0.000521766
0.000494519
0.000513953
0.000449406
0.000497574
0.000527987
0.000500867
0.000520271
0.000455593
0.000504033
0.000527919
0.000501548
0.000520906
0.000457097
0.000508822
0.000521911
0.000495406
0.000514802
0.000451092
0.00050258
0.00052157
0.000495067
0.000514456
0.000450777
0.000502234
0.000519591
0.000493087
0.000512443
0.000448921
0.000500235
0.000519353
0.000492852
0.0005122
0.000448701
0.000499993
0.000518454
0.000491959
0.000511283
0.000447869
0.000499084
0.000518323
0.000491829
0.000511148
0.000447747
0.00049895
0.000517918
0.000491428
0.000510734
0.000447372
0.00049854
0.000517862
0.000491373
0.000510677
0.000447321
0.000498483
0.000517746
0.000491258
0.000510558
0.000447213
0.000498365
0.000517746
0.000491258
0.000510558
0.000447213
0.000498365
0.000517862
0.000491373
0.000510677
0.000447321
0.000498483
0.000517918
0.000491428
0.000510734
0.000447372
0.00049854
0.000518323
0.000491829
0.000511148
0.000447747
0.00049895
0.000518454
0.000491959
0.000511283
0.000447869
0.000499084
0.000519353
0.000492852
0.0005122
0.000448701
0.000499993
0.000519591
0.000493087
0.000512443
0.000448921
0.000500235
0.00052157
0.000495067
0.000514456
0.000450777
0.000502234
0.000521911
0.000495406
0.000514802
0.000451092
0.00050258
0.000527919
0.000501548
0.000520906
0.000457097
0.000508822
0.000525282
0.000499329
0.000518832
0.000455443
0.0005105
0.000519402
0.000493326
0.000512863
0.00044958
0.000504408
0.000519065
0.000492992
0.000512521
0.000449269
0.000504066
0.000517093
0.000491021
0.000510516
0.000447421
0.000502069
0.000516856
0.000490787
0.000510275
0.000447204
0.000501829
0.00051596
0.000489898
0.00050936
0.000446373
0.000500921
0.000515829
0.000489769
0.000509226
0.000446253
0.000500787
0.000515425
0.000489368
0.000508814
0.000445879
0.000500376
0.000515369
0.000489314
0.000508757
0.000445828
0.00050032
0.000515253
0.000489199
0.000508638
0.000445721
0.000500202
0.000515253
0.000489199
0.000508638
0.000445721
0.000500202
0.000515369
0.000489314
0.000508757
0.000445828
0.00050032
0.000515425
0.000489368
0.000508814
0.000445879
0.000500376
0.000515829
0.000489769
0.000509226
0.000446253
0.000500787
0.00051596
0.000489898
0.00050936
0.000446373
0.000500921
0.000516856
0.000490787
0.000510275
0.000447204
0.000501829
0.000517093
0.000491021
0.000510516
0.000447421
0.000502069
0.000519065
0.000492992
0.000512521
0.000449269
0.000504066
0.000519402
0.000493326
0.000512863
0.00044958
0.000504408
0.000525282
0.000499329
0.000518832
0.000455443
0.0005105
0.000524028
0.000498345
0.000518073
0.000454876
0.000512911
0.000518241
0.000492447
0.000512205
0.000449122
0.000506929
0.000517906
0.000492115
0.000511865
0.000448814
0.000506588
0.000515931
0.000490144
0.000509859
0.000446966
0.000504586
0.000515695
0.000489911
0.000509618
0.000446749
0.000504345
0.000514796
0.000489021
0.000508702
0.000445917
0.000503433
0.000514666
0.000488892
0.000508569
0.000445797
0.000503299
0.00051426
0.000488491
0.000508155
0.000445422
0.000502887
0.000514205
0.000488436
0.000508098
0.000445371
0.00050283
0.000514089
0.000488321
0.000507979
0.000445264
0.000502712
0.000514089
0.000488321
0.000507979
0.000445264
0.000502712
0.000514205
0.000488436
0.000508098
0.000445371
0.00050283
0.00051426
0.000488491
0.000508155
0.000445422
0.000502887
0.000514666
0.000488892
0.000508569
0.000445797
0.000503299
0.000514796
0.000489021
0.000508702
0.000445917
0.000503433
0.000515695
0.000489911
0.000509618
0.000446749
0.000504345
0.000515931
0.000490144
0.000509859
0.000446966
0.000504586
0.000517906
0.000492115
0.000511865
0.000448814
0.000506588
0.000518241
0.000492447
0.000512205
0.000449122
0.000506929
0.000524028
0.000498345
0.000518073
0.000454876
0.000512911
0.000523712
0.000498304
0.000518244
0.000455303
0.000515612
0.000518021
0.000492508
0.000512476
0.000449651
0.000509726
0.000517687
0.000492179
0.000512139
0.000449345
0.000509388
0.000515712
0.000490208
0.000510133
0.000447495
0.00050738
0.000515477
0.000489976
0.000509893
0.000447279
0.000507139
0.000514576
0.000489084
0.000508976
0.000446445
0.000506223
0.000514446
0.000488955
0.000508842
0.000446325
0.000506089
0.000514039
0.000488554
0.000508428
0.00044595
0.000505675
0.000513984
0.000488499
0.000508371
0.000445899
0.000505618
0.000513868
0.000488384
0.000508252
0.000445791
0.000505499
0.000513868
0.000488384
0.000508252
0.000445791
0.000505499
0.000513984
0.000488499
0.000508371
0.000445899
0.000505618
0.000514039
0.000488554
0.000508428
0.00044595
0.000505675
0.000514446
0.000488955
0.000508842
0.000446325
0.000506089
0.000514576
0.000489084
0.000508976
0.000446445
0.000506223
0.000515477
0.000489976
0.000509893
0.000447279
0.000507139
0.000515712
0.000490208
0.000510133
0.000447495
0.00050738
0.000517687
0.000492179
0.000512139
0.000449345
0.000509388
0.000518021
0.000492508
0.000512476
0.000449651
0.000509726
0.000523712
0.000498304
0.000518244
0.000455303
0.000515612
0.000523492
0.000498376
0.000518505
0.000455932
0.00051746
0.000517902
0.000492687
0.000512843
0.000450381
0.000511658
0.000517572
0.000492361
0.000512509
0.000450078
0.000511321
0.000515597
0.000490393
0.000510504
0.000448228
0.000509308
0.000515363
0.000490162
0.000510266
0.000448013
0.000509068
0.000514462
0.000489269
0.000509348
0.000447178
0.000508148
0.000514332
0.000489141
0.000509215
0.000447058
0.000508014
0.000513925
0.000488739
0.0005088
0.000446682
0.000507598
0.00051387
0.000488685
0.000508743
0.000446631
0.000507541
0.000513753
0.00048857
0.000508624
0.000446523
0.000507422
0.000513753
0.00048857
0.000508624
0.000446523
0.000507422
0.00051387
0.000488685
0.000508743
0.000446631
0.000507541
0.000513925
0.000488739
0.0005088
0.000446682
0.000507598
0.000514332
0.000489141
0.000509215
0.000447058
0.000508014
0.000514462
0.000489269
0.000509348
0.000447178
0.000508148
0.000515363
0.000490162
0.000510266
0.000448013
0.000509068
0.000515597
0.000490393
0.000510504
0.000448228
0.000509308
0.000517572
0.000492361
0.000512509
0.000450078
0.000511321
0.000517902
0.000492687
0.000512843
0.000450381
0.000511658
0.000523492
0.000498376
0.000518505
0.000455932
0.00051746
0.000523159
0.000498332
0.000518635
0.000456458
0.000516248
0.000517668
0.000492749
0.000513078
0.000451009
0.000510545
0.000517341
0.000492425
0.000512747
0.000450708
0.000510211
0.000515369
0.00049046
0.000510746
0.000448859
0.000508202
0.000515136
0.00049023
0.000510508
0.000448645
0.000507962
0.000514234
0.000489337
0.00050959
0.000447809
0.000507043
0.000514105
0.00048921
0.000509457
0.000447689
0.000506909
0.000513698
0.000488808
0.000509042
0.000447312
0.000506493
0.000513643
0.000488754
0.000508986
0.000447261
0.000506436
0.000513526
0.000488638
0.000508867
0.000447153
0.000506317
0.000513526
0.000488638
0.000508867
0.000447153
0.000506317
0.000513643
0.000488754
0.000508986
0.000447261
0.000506436
0.000513698
0.000488808
0.000509042
0.000447312
0.000506493
0.000514105
0.00048921
0.000509457
0.000447689
0.000506909
0.000514234
0.000489337
0.00050959
0.000447809
0.000507043
0.000515136
0.00049023
0.000510508
0.000448645
0.000507962
0.000515369
0.00049046
0.000510746
0.000448859
0.000508202
0.000517341
0.000492425
0.000512747
0.000450708
0.000510211
0.000517668
0.000492749
0.000513078
0.000451009
0.000510545
0.000523159
0.000498332
0.000518635
0.000456458
0.000516248
0.000522786
0.000498235
0.000518707
0.000456854
0.000514164
0.000517393
0.000492755
0.000513252
0.000451506
0.000508565
0.000517069
0.000492435
0.000512924
0.000451207
0.000508235
0.0005151
0.000490472
0.000510926
0.00044936
0.000506231
0.000514867
0.000490243
0.000510689
0.000449146
0.000505993
0.000513965
0.000489351
0.000509771
0.000448309
0.000505075
0.000513836
0.000489224
0.000509639
0.000448189
0.000504942
0.000513429
0.000488821
0.000509223
0.000447812
0.000504526
0.000513374
0.000488767
0.000509167
0.000447762
0.00050447
0.000513257
0.000488652
0.000509048
0.000447653
0.00050435
0.000513257
0.000488652
0.000509048
0.000447653
0.00050435
0.000513374
0.000488767
0.000509167
0.000447762
0.00050447
0.000513429
0.000488821
0.000509223
0.000447812
0.000504526
0.000513836
0.000489224
0.000509639
0.000448189
0.000504942
0.000513965
0.000489351
0.000509771
0.000448309
0.000505075
0.000514867
0.000490243
0.000510689
0.000449146
0.000505993
0.0005151
0.000490472
0.000510926
0.00044936
0.000506231
0.000517069
0.000492435
0.000512924
0.000451207
0.000508235
0.000517393
0.000492755
0.000513252
0.000451506
0.000508565
0.000522786
0.000498235
0.000518707
0.000456854
0.000514164
0.000522437
0.00049815
0.000518785
0.000457168
0.000512341
0.000517139
0.00049277
0.000513429
0.000451918
0.000506842
0.000516817
0.000492452
0.000513104
0.000451622
0.000506515
0.00051485
0.000490493
0.000511109
0.000449777
0.000504518
0.000514619
0.000490265
0.000510873
0.000449563
0.000504281
0.000513716
0.000489373
0.000509955
0.000448726
0.000503363
0.000513588
0.000489246
0.000509823
0.000448606
0.000503231
0.00051318
0.000488844
0.000509408
0.000448229
0.000502816
0.000513125
0.00048879
0.000509352
0.000448178
0.000502759
0.000513008
0.000488674
0.000509232
0.00044807
0.00050264
0.000513008
0.000488674
0.000509232
0.00044807
0.00050264
0.000513125
0.00048879
0.000509352
0.000448178
0.000502759
0.00051318
0.000488844
0.000509408
0.000448229
0.000502816
0.000513588
0.000489246
0.000509823
0.000448606
0.000503231
0.000513716
0.000489373
0.000509955
0.000448726
0.000503363
0.000514619
0.000490265
0.000510873
0.000449563
0.000504281
0.00051485
0.000490493
0.000511109
0.000449777
0.000504518
0.000516817
0.000492452
0.000513104
0.000451622
0.000506515
0.000517139
0.00049277
0.000513429
0.000451918
0.000506842
0.000522437
0.00049815
0.000518785
0.000457168
0.000512341
0.000522119
0.000498086
0.000518879
0.000457422
0.00051078
0.000516913
0.000492803
0.00051362
0.000452268
0.000505378
0.000516594
0.000492489
0.000513298
0.000451975
0.000505053
0.00051463
0.000490534
0.000511307
0.000450132
0.000503062
0.0005144
0.000490307
0.000511072
0.000449919
0.000502827
0.000513497
0.000489414
0.000510153
0.000449081
0.00050191
0.000513369
0.000489288
0.000510022
0.000448963
0.000501778
0.000512961
0.000488885
0.000509606
0.000448585
0.000501363
0.000512906
0.000488832
0.000509551
0.000448534
0.000501307
0.000512789
0.000488716
0.000509431
0.000448425
0.000501187
0.000512789
0.000488716
0.000509431
0.000448425
0.000501187
0.000512906
0.000488832
0.000509551
0.000448534
0.000501307
0.000512961
0.000488885
0.000509606
0.000448585
0.000501363
0.000513369
0.000489288
0.000510022
0.000448963
0.000501778
0.000513497
0.000489414
0.000510153
0.000449081
0.00050191
0.0005144
0.000490307
0.000511072
0.000449919
0.000502827
0.00051463
0.000490534
0.000511307
0.000450132
0.000503062
0.000516594
0.000492489
0.000513298
0.000451975
0.000505053
0.000516913
0.000492803
0.00051362
0.000452268
0.000505378
0.000522119
0.000498086
0.000518879
0.000457422
0.00051078
0.000521823
0.000498036
0.000518983
0.000457616
0.000509282
0.000516708
0.000492849
0.000513819
0.000452557
0.000503974
0.000516391
0.000492537
0.000513499
0.000452266
0.000503653
0.000514431
0.000490586
0.000511512
0.000450427
0.000501668
0.000514201
0.00049036
0.000511278
0.000450215
0.000501434
0.000513298
0.000489467
0.00051036
0.000449377
0.000500518
0.00051317
0.000489342
0.000510229
0.000449258
0.000500386
0.000512762
0.000488939
0.000509813
0.00044888
0.000499971
0.000512708
0.000488886
0.000509757
0.00044883
0.000499915
0.000512591
0.00048877
0.000509638
0.000448721
0.000499796
0.000512591
0.00048877
0.000509638
0.000448721
0.000499796
0.000512708
0.000488886
0.000509757
0.00044883
0.000499915
0.000512762
0.000488939
0.000509813
0.00044888
0.000499971
0.00051317
0.000489342
0.000510229
0.000449258
0.000500386
0.000513298
0.000489467
0.00051036
0.000449377
0.000500518
0.000514201
0.00049036
0.000511278
0.000450215
0.000501434
0.000514431
0.000490586
0.000511512
0.000450427
0.000501668
0.000516391
0.000492537
0.000513499
0.000452266
0.000503653
0.000516708
0.000492849
0.000513819
0.000452557
0.000503974
0.000521823
0.000498036
0.000518983
0.000457616
0.000509282
0.000521545
0.000497996
0.000519093
0.000457747
0.000507779
0.000516518
0.000492902
0.000514022
0.000452782
0.000502562
0.000516204
0.000492592
0.000513705
0.000452494
0.000502244
0.000514248
0.000490646
0.000511722
0.000450658
0.000500265
0.000514019
0.000490421
0.000511489
0.000450447
0.000500032
0.000513116
0.000489528
0.000510571
0.000449609
0.000499117
0.000512988
0.000489403
0.00051044
0.000449491
0.000498987
0.00051258
0.000489
0.000510024
0.000449112
0.000498572
0.000512526
0.000488947
0.000509969
0.000449062
0.000498516
0.000512409
0.000488831
0.000509849
0.000448953
0.000498397
0.000512409
0.000488831
0.000509849
0.000448953
0.000498397
0.000512526
0.000488947
0.000509969
0.000449062
0.000498516
0.00051258
0.000489
0.000510024
0.000449112
0.000498572
0.000512988
0.000489403
0.00051044
0.000449491
0.000498987
0.000513116
0.000489528
0.000510571
0.000449609
0.000499117
0.000514019
0.000490421
0.000511489
0.000450447
0.000500032
0.000514248
0.000490646
0.000511722
0.000450658
0.000500265
0.000516204
0.000492592
0.000513705
0.000452494
0.000502244
0.000516518
0.000492902
0.000514022
0.000452782
0.000502562
0.000521545
0.000497996
0.000519093
0.000457747
0.000507779
0.000521284
0.000497964
0.000519211
0.000457816
0.00050628
0.000516344
0.000492961
0.000514231
0.000452944
0.000501152
0.000516032
0.000492655
0.000513916
0.000452657
0.000500837
0.00051408
0.000490713
0.000511938
0.000450826
0.000498866
0.000513852
0.000490489
0.000511706
0.000450616
0.000498634
0.000512949
0.000489596
0.000510788
0.000449778
0.00049772
0.000512822
0.000489471
0.000510658
0.00044966
0.00049759
0.000512413
0.000489069
0.000510242
0.000449282
0.000497175
0.00051236
0.000489016
0.000510187
0.000449232
0.00049712
0.000512242
0.0004889
0.000510067
0.000449123
0.000497001
0.000512242
0.0004889
0.000510067
0.000449123
0.000497001
0.00051236
0.000489016
0.000510187
0.000449232
0.00049712
0.000512413
0.000489069
0.000510242
0.000449282
0.000497175
0.000512822
0.000489471
0.000510658
0.00044966
0.00049759
0.000512949
0.000489596
0.000510788
0.000449778
0.00049772
0.000513852
0.000490489
0.000511706
0.000450616
0.000498634
0.00051408
0.000490713
0.000511938
0.000450826
0.000498866
0.000516032
0.000492655
0.000513916
0.000452657
0.000500837
0.000516344
0.000492961
0.000514231
0.000452944
0.000501152
0.000521284
0.000497964
0.000519211
0.000457816
0.00050628
0.000521041
0.000497943
0.000519338
0.000457824
0.0005048
0.000516185
0.000493029
0.000514447
0.000453042
0.000499759
0.000515875
0.000492725
0.000514135
0.000452758
0.000499447
0.000513928
0.000490788
0.000512162
0.000450932
0.000497483
0.000513701
0.000490565
0.000511931
0.000450723
0.000497253
0.000512798
0.000489673
0.000511013
0.000449885
0.000496339
0.000512671
0.000489548
0.000510883
0.000449768
0.00049621
0.000512263
0.000489145
0.000510467
0.000449389
0.000495795
0.000512209
0.000489093
0.000510412
0.00044934
0.00049574
0.000512092
0.000488977
0.000510292
0.000449231
0.000495621
0.000512092
0.000488977
0.000510292
0.000449231
0.000495621
0.000512209
0.000489093
0.000510412
0.00044934
0.00049574
0.000512263
0.000489145
0.000510467
0.000449389
0.000495795
0.000512671
0.000489548
0.000510883
0.000449768
0.00049621
0.000512798
0.000489673
0.000511013
0.000449885
0.000496339
0.000513701
0.000490565
0.000511931
0.000450723
0.000497253
0.000513928
0.000490788
0.000512162
0.000450932
0.000497483
0.000515875
0.000492725
0.000514135
0.000452758
0.000499447
0.000516185
0.000493029
0.000514447
0.000453042
0.000499759
0.000521041
0.000497943
0.000519338
0.000457824
0.0005048
0.000520815
0.000497932
0.000519476
0.000457771
0.000503273
0.000516042
0.000493105
0.000514672
0.000453078
0.000498318
0.000515735
0.000492803
0.000514362
0.000452797
0.000498008
0.000513792
0.000490871
0.000512394
0.000450976
0.000496052
0.000513566
0.000490649
0.000512165
0.000450768
0.000495823
0.000512663
0.000489757
0.000511247
0.000449931
0.000494911
0.000512537
0.000489633
0.000511118
0.000449814
0.000494782
0.000512128
0.00048923
0.000510701
0.000449436
0.000494368
0.000512075
0.000489178
0.000510646
0.000449386
0.000494313
0.000511957
0.000489062
0.000510527
0.000449277
0.000494194
0.000511957
0.000489062
0.000510527
0.000449277
0.000494194
0.000512075
0.000489178
0.000510646
0.000449386
0.000494313
0.000512128
0.00048923
0.000510701
0.000449436
0.000494368
0.000512537
0.000489633
0.000511118
0.000449814
0.000494782
0.000512663
0.000489757
0.000511247
0.000449931
0.000494911
0.000513566
0.000490649
0.000512165
0.000450768
0.000495823
0.000513792
0.000490871
0.000512394
0.000450976
0.000496052
0.000515735
0.000492803
0.000514362
0.000452797
0.000498008
0.000516042
0.000493105
0.000514672
0.000453078
0.000498318
0.000520815
0.000497932
0.000519476
0.000457771
0.000503273
-1.62552e-05
1.57635e-05
2.82339e-06
6.9921e-07
2.51853e-07
1.80931e-07
1.65368e-07
1.62514e-07
1.61813e-07
1.61664e-07
1.61615e-07
1.61593e-07
1.61495e-07
1.61386e-07
1.60519e-07
1.59851e-07
1.53415e-07
1.50644e-07
1.11916e-07
1.07812e-07
-1.6324e-05
1.5724e-05
2.83824e-06
7.04329e-07
2.5312e-07
1.81243e-07
1.65424e-07
1.62514e-07
1.61796e-07
1.61644e-07
1.61594e-07
1.61571e-07
1.61471e-07
1.61359e-07
1.60478e-07
1.59803e-07
1.53295e-07
1.50518e-07
1.11616e-07
1.076e-07
-1.63179e-05
1.57143e-05
2.83525e-06
7.03928e-07
2.53043e-07
1.81234e-07
1.65422e-07
1.62513e-07
1.61796e-07
1.61644e-07
1.61594e-07
1.61571e-07
1.61471e-07
1.61359e-07
1.60477e-07
1.59802e-07
1.53293e-07
1.50516e-07
1.11613e-07
1.07598e-07
-1.62889e-05
1.56626e-05
2.81937e-06
7.01814e-07
2.52638e-07
1.81182e-07
1.65411e-07
1.62511e-07
1.61795e-07
1.61642e-07
1.61592e-07
1.6157e-07
1.61469e-07
1.61357e-07
1.60475e-07
1.59799e-07
1.53286e-07
1.50509e-07
1.11601e-07
1.07592e-07
-1.6284e-05
1.56553e-05
2.81681e-06
7.01412e-07
2.52548e-07
1.81167e-07
1.65408e-07
1.6251e-07
1.61795e-07
1.61642e-07
1.61592e-07
1.6157e-07
1.61469e-07
1.61357e-07
1.60475e-07
1.59799e-07
1.53286e-07
1.50509e-07
1.11601e-07
1.07591e-07
-1.62679e-05
1.56307e-05
2.80843e-06
7.0016e-07
2.52275e-07
1.81123e-07
1.65398e-07
1.62509e-07
1.61794e-07
1.61642e-07
1.61592e-07
1.61569e-07
1.61469e-07
1.61357e-07
1.60474e-07
1.59798e-07
1.53286e-07
1.50509e-07
1.11601e-07
1.07591e-07
-1.62652e-05
1.56266e-05
2.80703e-06
6.99936e-07
2.52224e-07
1.81114e-07
1.65395e-07
1.62508e-07
1.61794e-07
1.61642e-07
1.61592e-07
1.61569e-07
1.61469e-07
1.61357e-07
1.60474e-07
1.59798e-07
1.53286e-07
1.50509e-07
1.11601e-07
1.07591e-07
-1.62579e-05
1.56156e-05
2.80327e-06
6.99369e-07
2.52098e-07
1.81094e-07
1.65391e-07
1.62507e-07
1.61794e-07
1.61642e-07
1.61592e-07
1.61569e-07
1.61469e-07
1.61357e-07
1.60474e-07
1.59798e-07
1.53286e-07
1.50509e-07
1.11601e-07
1.07591e-07
-1.62568e-05
1.56139e-05
2.80268e-06
6.99275e-07
2.52077e-07
1.8109e-07
1.6539e-07
1.62507e-07
1.61794e-07
1.61642e-07
1.61592e-07
1.61569e-07
1.61469e-07
1.61357e-07
1.60474e-07
1.59798e-07
1.53286e-07
1.50509e-07
1.11601e-07
1.07591e-07
-1.62547e-05
1.56108e-05
2.80161e-06
6.99114e-07
2.52041e-07
1.81084e-07
1.65388e-07
1.62507e-07
1.61794e-07
1.61642e-07
1.61592e-07
1.61569e-07
1.61469e-07
1.61357e-07
1.60474e-07
1.59798e-07
1.53286e-07
1.50509e-07
1.11601e-07
1.07591e-07
-1.62547e-05
1.56108e-05
2.80161e-06
6.99114e-07
2.52041e-07
1.81084e-07
1.65388e-07
1.62507e-07
1.61794e-07
1.61642e-07
1.61592e-07
1.61569e-07
1.61469e-07
1.61357e-07
1.60474e-07
1.59798e-07
1.53286e-07
1.50509e-07
1.11601e-07
1.07591e-07
-1.62568e-05
1.56139e-05
2.80268e-06
6.99275e-07
2.52077e-07
1.8109e-07
1.6539e-07
1.62507e-07
1.61794e-07
1.61642e-07
1.61592e-07
1.61569e-07
1.61469e-07
1.61357e-07
1.60474e-07
1.59798e-07
1.53286e-07
1.50509e-07
1.11601e-07
1.07591e-07
-1.62579e-05
1.56156e-05
2.80327e-06
6.99369e-07
2.52098e-07
1.81094e-07
1.65391e-07
1.62507e-07
1.61794e-07
1.61642e-07
1.61592e-07
1.61569e-07
1.61469e-07
1.61357e-07
1.60474e-07
1.59798e-07
1.53286e-07
1.50509e-07
1.11601e-07
1.07591e-07
-1.62652e-05
1.56266e-05
2.80703e-06
6.99936e-07
2.52224e-07
1.81114e-07
1.65395e-07
1.62508e-07
1.61794e-07
1.61642e-07
1.61592e-07
1.61569e-07
1.61469e-07
1.61357e-07
1.60474e-07
1.59798e-07
1.53286e-07
1.50509e-07
1.11601e-07
1.07591e-07
-1.62679e-05
1.56307e-05
2.80843e-06
7.0016e-07
2.52275e-07
1.81123e-07
1.65398e-07
1.62509e-07
1.61794e-07
1.61642e-07
1.61592e-07
1.61569e-07
1.61469e-07
1.61357e-07
1.60474e-07
1.59798e-07
1.53286e-07
1.50509e-07
1.11601e-07
1.07591e-07
-1.6284e-05
1.56553e-05
2.81681e-06
7.01412e-07
2.52548e-07
1.81167e-07
1.65408e-07
1.6251e-07
1.61795e-07
1.61642e-07
1.61592e-07
1.6157e-07
1.61469e-07
1.61357e-07
1.60475e-07
1.59799e-07
1.53286e-07
1.50509e-07
1.11601e-07
1.07591e-07
-1.62889e-05
1.56626e-05
2.81937e-06
7.01814e-07
2.52638e-07
1.81182e-07
1.65411e-07
1.62511e-07
1.61795e-07
1.61642e-07
1.61592e-07
1.6157e-07
1.61469e-07
1.61357e-07
1.60475e-07
1.59799e-07
1.53286e-07
1.50509e-07
1.11601e-07
1.07592e-07
-1.63179e-05
1.57143e-05
2.83525e-06
7.03928e-07
2.53043e-07
1.81234e-07
1.65422e-07
1.62513e-07
1.61796e-07
1.61644e-07
1.61594e-07
1.61571e-07
1.61471e-07
1.61359e-07
1.60477e-07
1.59802e-07
1.53293e-07
1.50516e-07
1.11613e-07
1.07598e-07
-1.6324e-05
1.5724e-05
2.83824e-06
7.04329e-07
2.5312e-07
1.81243e-07
1.65424e-07
1.62514e-07
1.61796e-07
1.61644e-07
1.61594e-07
1.61571e-07
1.61471e-07
1.61359e-07
1.60478e-07
1.59803e-07
1.53295e-07
1.50518e-07
1.11616e-07
1.076e-07
-1.62552e-05
1.57635e-05
2.82339e-06
6.9921e-07
2.51853e-07
1.80931e-07
1.65368e-07
1.62514e-07
1.61813e-07
1.61664e-07
1.61615e-07
1.61593e-07
1.61495e-07
1.61386e-07
1.60519e-07
1.59851e-07
1.53415e-07
1.50644e-07
1.11916e-07
1.07812e-07
-1.58702e-05
1.59337e-05
2.84886e-06
7.04653e-07
2.52811e-07
1.81153e-07
1.65395e-07
1.62607e-07
1.61904e-07
1.61753e-07
1.61703e-07
1.61681e-07
1.61582e-07
1.6147e-07
1.60564e-07
1.59833e-07
1.53333e-07
1.50537e-07
1.11321e-07
1.07188e-07
-1.5934e-05
1.58941e-05
2.86387e-06
7.09831e-07
2.54093e-07
1.81468e-07
1.65452e-07
1.62606e-07
1.61888e-07
1.61733e-07
1.61682e-07
1.61659e-07
1.61557e-07
1.61444e-07
1.60522e-07
1.59784e-07
1.53212e-07
1.50409e-07
1.11017e-07
1.06972e-07
-1.59278e-05
1.58843e-05
2.86086e-06
7.09425e-07
2.54014e-07
1.81459e-07
1.6545e-07
1.62606e-07
1.61887e-07
1.61732e-07
1.61682e-07
1.61659e-07
1.61557e-07
1.61444e-07
1.60521e-07
1.59783e-07
1.5321e-07
1.50407e-07
1.11014e-07
1.0697e-07