/*--------------------------------*- C++ -*----------------------------------*\
  =========                 |
  \\      /  F ield         | OpenFOAM: The Open Source CFD Toolbox
   \\    /   O peration     | Website:  https://openfoam.org
    \\  /    A nd           | Version:  8
     \\/     M anipulation  |
\*---------------------------------------------------------------------------*/
FoamFile
{
    version     2.0;
    format      ascii;
    class       volScalarField;
    location    "1";
    object      p;
}
// * * * * * * * * * * * * * * * * * * * * * * * * * * * * * * * * * * * * * //

dimensions      [0 2 -2 0 0 0 0];

internalField   nonuniform List<scalar> 
180000
(
0.00119723
0.00111467
0.0011774
0.000980139
0.00109354
0.00118327
0.00110106
0.00116345
0.000967822
0.0010798
0.0011829
0.00110071
0.00116309
0.000967525
0.00107946
0.0011807
0.00109857
0.00116089
0.000965676
0.00107741
0.0011806
0.00109847
0.00116079
0.000965591
0.00107732
0.00118015
0.00109803
0.00116034
0.00096521
0.00107689
0.00118012
0.00109801
0.00116032
0.00096519
0.00107687
0.00118004
0.00109792
0.00116023
0.000965114
0.00107679
0.00118003
0.00109792
0.00116023
0.000965111
0.00107678
0.00118002
0.00109791
0.00116021
0.0009651
0.00107677
0.00118002
0.00109791
0.00116021
0.0009651
0.00107677
0.00118003
0.00109792
0.00116023
0.000965111
0.00107678
0.00118004
0.00109792
0.00116023
0.000965114
0.00107679
0.00118012
0.00109801
0.00116032
0.00096519
0.00107687
0.00118015
0.00109803
0.00116034
0.00096521
0.00107689
0.0011806
0.00109847
0.00116079
0.000965591
0.00107732
0.0011807
0.00109857
0.00116089
0.000965676
0.00107741
0.0011829
0.00110071
0.00116309
0.000967525
0.00107946
0.00118327
0.00110106
0.00116345
0.000967822
0.0010798
0.00119723
0.00111467
0.0011774
0.000980139
0.00109354
0.000812333
0.000800633
0.000810569
0.000764572
0.000797047
0.000810882
0.00079799
0.000808833
0.000760313
0.000794041
0.000810844
0.000797922
0.000808788
0.000760209
0.000793966
0.000810574
0.000797463
0.000808472
0.00075953
0.000793474
0.000810562
0.000797443
0.000808458
0.000759499
0.000793451
0.000810503
0.000797345
0.000808389
0.000759356
0.000793346
0.0008105
0.00079734
0.000808385
0.000759349
0.000793341
0.000810488
0.00079732
0.000808371
0.00075932
0.000793319
0.000810487
0.000797319
0.000808371
0.000759318
0.000793319
0.000810485
0.000797316
0.000808368
0.000759314
0.000793316
0.000810485
0.000797316
0.000808368
0.000759314
0.000793316
0.000810487
0.000797319
0.000808371
0.000759318
0.000793319
0.000810488
0.00079732
0.000808371
0.00075932
0.000793319
0.0008105
0.00079734
0.000808385
0.000759349
0.000793341
0.000810503
0.000797345
0.000808389
0.000759356
0.000793346
0.000810562
0.000797443
0.000808458
0.000759499
0.000793451
0.000810574
0.000797463
0.000808472
0.00075953
0.000793474
0.000810844
0.000797922
0.000808788
0.000760209
0.000793966
0.000810882
0.00079799
0.000808833
0.000760313
0.000794041
0.000812333
0.000800633
0.000810569
0.000764572
0.000797047
0.000605248
0.000589364
0.000602742
0.000552843
0.000588528
0.000602981
0.000586328
0.000600263
0.000549109
0.000585279
0.000602922
0.000586252
0.000600199
0.000549019
0.000585199
0.000602507
0.00058572
0.000599753
0.000548406
0.000584657
0.000602489
0.000585697
0.000599732
0.000548378
0.000584632
0.000602399
0.000585583
0.000599636
0.000548248
0.000584516
0.000602394
0.000585577
0.000599631
0.000548242
0.00058451
0.000602376
0.000585554
0.000599611
0.000548215
0.000584486
0.000602375
0.000585553
0.00059961
0.000548214
0.000584485
0.000602372
0.00058555
0.000599607
0.00054821
0.000584482
0.000602372
0.00058555
0.000599607
0.00054821
0.000584482
0.000602375
0.000585553
0.00059961
0.000548214
0.000584485
0.000602376
0.000585554
0.000599611
0.000548215
0.000584486
0.000602394
0.000585577
0.000599631
0.000548242
0.00058451
0.000602399
0.000585583
0.000599636
0.000548248
0.000584516
0.000602489
0.000585697
0.000599732
0.000548378
0.000584632
0.000602507
0.00058572
0.000599753
0.000548406
0.000584657
0.000602922
0.000586252
0.000600199
0.000549019
0.000585199
0.000602981
0.000586328
0.000600263
0.000549109
0.000585279
0.000605248
0.000589364
0.000602742
0.000552843
0.000588528
0.000609073
0.000579229
0.000603322
0.000525783
0.000578972
0.000604232
0.000574239
0.000598429
0.000520901
0.000573913
0.000604105
0.000574111
0.000598301
0.000520783
0.000573787
0.000603276
0.000573261
0.000597465
0.000519983
0.000572959
0.000603238
0.000573223
0.000597426
0.000519947
0.00057292
0.000603063
0.000573043
0.000597249
0.000519777
0.000572745
0.000603054
0.000573034
0.00059724
0.000519769
0.000572735
0.000603019
0.000572998
0.000597204
0.000519734
0.000572699
0.000603018
0.000572996
0.000597203
0.000519732
0.000572698
0.000603013
0.000572991
0.000597198
0.000519727
0.000572693
0.000603013
0.000572991
0.000597198
0.000519727
0.000572693
0.000603018
0.000572996
0.000597203
0.000519732
0.000572698
0.000603019
0.000572998
0.000597204
0.000519734
0.000572699
0.000603054
0.000573034
0.00059724
0.000519769
0.000572735
0.000603063
0.000573043
0.000597249
0.000519777
0.000572745
0.000603238
0.000573223
0.000597426
0.000519947
0.00057292
0.000603276
0.000573261
0.000597465
0.000519983
0.000572959
0.000604105
0.000574111
0.000598301
0.000520783
0.000573787
0.000604232
0.000574239
0.000598429
0.000520901
0.000573913
0.000609073
0.000579229
0.000603322
0.000525783
0.000578972
0.000638892
0.00060768
0.000633228
0.000551244
0.000610399
0.000633855
0.000602488
0.000628143
0.00054613
0.000605183
0.00063372
0.000602354
0.000628008
0.000546006
0.00060505
0.000632841
0.000601452
0.000627122
0.00054515
0.000604175
0.000632801
0.000601411
0.000627081
0.000545111
0.000604134
0.000632614
0.000601219
0.000626893
0.00054493
0.000603948
0.000632605
0.00060121
0.000626883
0.00054492
0.000603938
0.000632567
0.000601171
0.000626845
0.000544883
0.0006039
0.000632566
0.000601169
0.000626843
0.000544881
0.000603898
0.00063256
0.000601163
0.000626838
0.000544876
0.000603893
0.00063256
0.000601163
0.000626838
0.000544876
0.000603893
0.000632566
0.000601169
0.000626843
0.000544881
0.000603898
0.000632567
0.000601171
0.000626845
0.000544883
0.0006039
0.000632605
0.00060121
0.000626883
0.00054492
0.000603938
0.000632614
0.000601219
0.000626893
0.00054493
0.000603948
0.000632801
0.000601411
0.000627081
0.000545111
0.000604134
0.000632841
0.000601452
0.000627122
0.00054515
0.000604175
0.00063372
0.000602354
0.000628008
0.000546006
0.00060505
0.000633855
0.000602488
0.000628143
0.00054613
0.000605183
0.000638892
0.00060768
0.000633228
0.000551244
0.000610399
0.00064645
0.0006175
0.000641782
0.000563507
0.000624457
0.00064186
0.000612668
0.000637128
0.000558621
0.000619628
0.000641737
0.000612542
0.000637004
0.000558501
0.000619504
0.000640907
0.000611676
0.000636164
0.000557659
0.000618661
0.00064087
0.000611637
0.000636126
0.000557621
0.000618623
0.000640692
0.000611451
0.000635946
0.000557441
0.000618442
0.000640683
0.000611442
0.000635936
0.000557432
0.000618432
0.000640647
0.000611404
0.000635899
0.000557395
0.000618395
0.000640645
0.000611402
0.000635898
0.000557393
0.000618393
0.00064064
0.000611397
0.000635893
0.000557388
0.000618388
0.00064064
0.000611397
0.000635893
0.000557388
0.000618388
0.000640645
0.000611402
0.000635898
0.000557393
0.000618393
0.000640647
0.000611404
0.000635899
0.000557395
0.000618395
0.000640683
0.000611442
0.000635936
0.000557432
0.000618432
0.000640692
0.000611451
0.000635946
0.000557441
0.000618442
0.00064087
0.000611637
0.000636126
0.000557621
0.000618623
0.000640907
0.000611676
0.000636164
0.000557659
0.000618661
0.000641737
0.000612542
0.000637004
0.000558501
0.000619504
0.00064186
0.000612668
0.000637128
0.000558621
0.000619628
0.00064645
0.0006175
0.000641782
0.000563507
0.000624457
0.000642848
0.000615144
0.000638888
0.000562941
0.000626516
0.000638504
0.000610544
0.00063448
0.000558254
0.000621953
0.000638387
0.000610423
0.000634362
0.000558139
0.000621835
0.000637578
0.000609575
0.000633543
0.000557309
0.00062101
0.000637542
0.000609537
0.000633506
0.000557272
0.000620972
0.000637367
0.000609354
0.000633328
0.000557094
0.000620794
0.000637358
0.000609345
0.000633319
0.000557085
0.000620784
0.000637322
0.000609307
0.000633282
0.000557047
0.000620747
0.00063732
0.000609305
0.000633281
0.000557046
0.000620746
0.000637315
0.000609299
0.000633276
0.00055704
0.00062074
0.000637315
0.000609299
0.000633276
0.00055704
0.00062074
0.00063732
0.000609305
0.000633281
0.000557046
0.000620746
0.000637322
0.000609307
0.000633282
0.000557047
0.000620747
0.000637358
0.000609345
0.000633319
0.000557085
0.000620784
0.000637367
0.000609354
0.000633328
0.000557094
0.000620794
0.000637542
0.000609537
0.000633506
0.000557272
0.000620972
0.000637578
0.000609575
0.000633543
0.000557309
0.00062101
0.000638387
0.000610423
0.000634362
0.000558139
0.000621835
0.000638504
0.000610544
0.00063448
0.000558254
0.000621953
0.000642848
0.000615144
0.000638888
0.000562941
0.000626516
0.000639425
0.000611998
0.000635916
0.000560451
0.000627464
0.00063515
0.000607486
0.000631585
0.000555869
0.000623023
0.000635034
0.000607367
0.000631469
0.000555755
0.000622907
0.000634219
0.000606515
0.000630645
0.000554924
0.00062208
0.000634183
0.000606478
0.000630607
0.000554888
0.000622042
0.000634005
0.000606293
0.000630427
0.000554708
0.000621862
0.000633996
0.000606283
0.000630418
0.000554698
0.000621852
0.000633959
0.000606245
0.000630381
0.00055466
0.000621814
0.000633958
0.000606243
0.000630379
0.000554659
0.000621813
0.000633952
0.000606237
0.000630373
0.000554653
0.000621807
0.000633952
0.000606237
0.000630373
0.000554653
0.000621807
0.000633958
0.000606243
0.000630379
0.000554659
0.000621813
0.000633959
0.000606245
0.000630381
0.00055466
0.000621814
0.000633996
0.000606283
0.000630418
0.000554698
0.000621852
0.000634005
0.000606293
0.000630427
0.000554708
0.000621862
0.000634183
0.000606478
0.000630607
0.000554888
0.000622042
0.000634219
0.000606515
0.000630645
0.000554924
0.00062208
0.000635034
0.000607367
0.000631469
0.000555755
0.000622907
0.00063515
0.000607486
0.000631585
0.000555869
0.000623023
0.000639425
0.000611998
0.000635916
0.000560451
0.000627464
0.00063795
0.000610672
0.000634853
0.000559606
0.000629722
0.000633723
0.000606223
0.000630578
0.000555099
0.000625368
0.000633609
0.000606105
0.000630463
0.000554987
0.000625252
0.000632785
0.000605247
0.000629631
0.000554151
0.000624419
0.000632749
0.000605209
0.000629594
0.000554114
0.000624382
0.000632568
0.000605022
0.000629411
0.000553932
0.000624199
0.000632559
0.000605012
0.000629402
0.000553923
0.000624189
0.000632521
0.000604973
0.000629363
0.000553884
0.00062415
0.00063252
0.000604971
0.000629362
0.000553882
0.000624149
0.000632514
0.000604965
0.000629356
0.000553876
0.000624143
0.000632514
0.000604965
0.000629356
0.000553876
0.000624143
0.00063252
0.000604971
0.000629362
0.000553882
0.000624149
0.000632521
0.000604973
0.000629363
0.000553884
0.00062415
0.000632559
0.000605012
0.000629402
0.000553923
0.000624189
0.000632568
0.000605022
0.000629411
0.000553932
0.000624199
0.000632749
0.000605209
0.000629594
0.000554114
0.000624382
0.000632785
0.000605247
0.000629631
0.000554151
0.000624419
0.000633609
0.000606105
0.000630463
0.000554987
0.000625252
0.000633723
0.000606223
0.000630578
0.000555099
0.000625368
0.00063795
0.000610672
0.000634853
0.000559606
0.000629722
0.000637105
0.000610098
0.000634442
0.000559729
0.000632152
0.00063295
0.000605729
0.000630244
0.000555302
0.000627882
0.000632836
0.000605613
0.00063013
0.000555192
0.000627768
0.000632009
0.000604751
0.000629294
0.000554352
0.000626931
0.000631972
0.000604714
0.000629257
0.000554315
0.000626893
0.000631789
0.000604524
0.000629072
0.000554131
0.000626708
0.00063178
0.000604514
0.000629063
0.000554122
0.000626698
0.000631741
0.000604474
0.000629023
0.000554083
0.000626659
0.00063174
0.000604473
0.000629022
0.000554081
0.000626657
0.000631734
0.000604466
0.000629016
0.000554075
0.000626651
0.000631734
0.000604466
0.000629016
0.000554075
0.000626651
0.00063174
0.000604473
0.000629022
0.000554081
0.000626657
0.000631741
0.000604474
0.000629023
0.000554083
0.000626659
0.00063178
0.000604514
0.000629063
0.000554122
0.000626698
0.000631789
0.000604524
0.000629072
0.000554131
0.000626708
0.000631972
0.000604714
0.000629257
0.000554315
0.000626893
0.000632009
0.000604751
0.000629294
0.000554352
0.000626931
0.000632836
0.000605613
0.00063013
0.000555192
0.000627768
0.00063295
0.000605729
0.000630244
0.000555302
0.000627882
0.000637105
0.000610098
0.000634442
0.000559729
0.000632152
0.000636152
0.000609473
0.000633924
0.000559954
0.000633751
0.000632078
0.000605191
0.000629812
0.000555612
0.000629549
0.000631966
0.000605077
0.0006297
0.000555504
0.000629436
0.000631137
0.000604214
0.000628862
0.000554662
0.000628593
0.0006311
0.000604177
0.000628825
0.000554626
0.000628555
0.000630915
0.000603986
0.000628638
0.00055444
0.000628367
0.000630906
0.000603976
0.000628629
0.000554431
0.000628358
0.000630867
0.000603935
0.000628589
0.000554391
0.000628318
0.000630865
0.000603934
0.000628587
0.000554389
0.000628316
0.000630859
0.000603927
0.000628581
0.000554383
0.00062831
0.000630859
0.000603927
0.000628581
0.000554383
0.00062831
0.000630865
0.000603934
0.000628587
0.000554389
0.000628316
0.000630867
0.000603935
0.000628589
0.000554391
0.000628318
0.000630906
0.000603976
0.000628629
0.000554431
0.000628358
0.000630915
0.000603986
0.000628638
0.00055444
0.000628367
0.0006311
0.000604177
0.000628825
0.000554626
0.000628555
0.000631137
0.000604214
0.000628862
0.000554662
0.000628593
0.000631966
0.000605077
0.0006297
0.000555504
0.000629436
0.000632078
0.000605191
0.000629812
0.000555612
0.000629549
0.000636152
0.000609473
0.000633924
0.000559954
0.000633751
0.000635073
0.000608712
0.000633262
0.000560042
0.000631878
0.000631077
0.000604516
0.000629234
0.000555784
0.000627746
0.000630967
0.000604404
0.000629124
0.000555678
0.000627635
0.000630136
0.00060354
0.000628285
0.000554834
0.000626789
0.000630099
0.000603503
0.000628248
0.000554798
0.000626752
0.000629913
0.00060331
0.000628059
0.000554611
0.000626562
0.000629904
0.0006033
0.00062805
0.000554601
0.000626552
0.000629864
0.000603259
0.000628009
0.000554561
0.000626512
0.000629862
0.000603257
0.000628007
0.000554559
0.00062651
0.000629856
0.000603251
0.000628001
0.000554553
0.000626503
0.000629856
0.000603251
0.000628001
0.000554553
0.000626503
0.000629862
0.000603257
0.000628007
0.000554559
0.00062651
0.000629864
0.000603259
0.000628009
0.000554561
0.000626512
0.000629904
0.0006033
0.00062805
0.000554601
0.000626552
0.000629913
0.00060331
0.000628059
0.000554611
0.000626562
0.000630099
0.000603503
0.000628248
0.000554798
0.000626752
0.000630136
0.00060354
0.000628285
0.000554834
0.000626789
0.000630967
0.000604404
0.000629124
0.000555678
0.000627635
0.000631077
0.000604516
0.000629234
0.000555784
0.000627746
0.000635073
0.000608712
0.000633262
0.000560042
0.000631878
0.000633987
0.000607926
0.000632575
0.000559985
0.000629023
0.000630065
0.000603811
0.000628626
0.00055581
0.00062496
0.000629957
0.000603701
0.000628518
0.000555705
0.000624851
0.000629124
0.000602836
0.000627678
0.000554861
0.000624005
0.000629088
0.000602799
0.000627641
0.000554825
0.000623968
0.000628899
0.000602605
0.00062745
0.000554636
0.000623776
0.00062889
0.000602595
0.000627441
0.000554626
0.000623766
0.000628849
0.000602553
0.0006274
0.000554585
0.000623725
0.000628848
0.000602551
0.000627398
0.000554584
0.000623723
0.000628841
0.000602545
0.000627391
0.000554577
0.000623717
0.000628841
0.000602545
0.000627391
0.000554577
0.000623717
0.000628848
0.000602551
0.000627398
0.000554584
0.000623723
0.000628849
0.000602553
0.0006274
0.000554585
0.000623725
0.00062889
0.000602595
0.000627441
0.000554626
0.000623766
0.000628899
0.000602605
0.00062745
0.000554636
0.000623776
0.000629088
0.000602799
0.000627641
0.000554825
0.000623968
0.000629124
0.000602836
0.000627678
0.000554861
0.000624005
0.000629957
0.000603701
0.000628518
0.000555705
0.000624851
0.000630065
0.000603811
0.000628626
0.00055581
0.00062496
0.000633987
0.000607926
0.000632575
0.000559985
0.000629023
0.000632935
0.000607164
0.000631908
0.000559829
0.000626456
0.000629086
0.000603129
0.000628036
0.000555734
0.000622462
0.00062898
0.000603021
0.00062793
0.00055563
0.000622355
0.000628146
0.000602156
0.000627089
0.000554785
0.000621508
0.000628109
0.000602119
0.000627052
0.000554749
0.000621471
0.000627919
0.000601923
0.00062686
0.000554559
0.000621278
0.00062791
0.000601913
0.00062685
0.00055455
0.000621268
0.000627869
0.00060187
0.000626808
0.000554508
0.000621226
0.000627867
0.000601869
0.000626807
0.000554506
0.000621224
0.00062786
0.000601862
0.0006268
0.0005545
0.000621217
0.00062786
0.000601862
0.0006268
0.0005545
0.000621217
0.000627867
0.000601869
0.000626807
0.000554506
0.000621224
0.000627869
0.00060187
0.000626808
0.000554508
0.000621226
0.00062791
0.000601913
0.00062685
0.00055455
0.000621268
0.000627919
0.000601923
0.00062686
0.000554559
0.000621278
0.000628109
0.000602119
0.000627052
0.000554749
0.000621471
0.000628146
0.000602156
0.000627089
0.000554785
0.000621508
0.00062898
0.000603021
0.00062793
0.00055563
0.000622355
0.000629086
0.000603129
0.000628036
0.000555734
0.000622462
0.000632935
0.000607164
0.000631907
0.000559829
0.000626456
0.000631912
0.000606426
0.000631257
0.000559589
0.000624173
0.000628134
0.000602469
0.000627461
0.000555573
0.000620248
0.00062803
0.000602363
0.000627356
0.000555471
0.000620142
0.000627194
0.000601497
0.000626515
0.000554626
0.000619295
0.000627158
0.00060146
0.000626478
0.00055459
0.000619258
0.000626967
0.000601263
0.000626284
0.000554399
0.000619063
0.000626957
0.000601253
0.000626275
0.000554389
0.000619053
0.000626915
0.00060121
0.000626232
0.000554347
0.00061901
0.000626913
0.000601208
0.00062623
0.000554345
0.000619009
0.000626907
0.000601201
0.000626224
0.000554339
0.000619002
0.000626907
0.000601201
0.000626224
0.000554339
0.000619002
0.000626913
0.000601208
0.00062623
0.000554345
0.000619009
0.000626915
0.00060121
0.000626232
0.000554347
0.00061901
0.000626957
0.000601253
0.000626275
0.000554389
0.000619053
0.000626967
0.000601263
0.000626284
0.000554399
0.000619063
0.000627158
0.00060146
0.000626478
0.00055459
0.000619258
0.000627194
0.000601497
0.000626515
0.000554626
0.000619295
0.00062803
0.000602363
0.000627356
0.000555471
0.000620142
0.000628134
0.000602469
0.000627461
0.000555573
0.000620248
0.000631912
0.000606426
0.000631257
0.000559589
0.000624173
0.000630907
0.000605702
0.000630614
0.000559266
0.000621955
0.0006272
0.000601821
0.000626892
0.000555328
0.000618096
0.000627097
0.000601716
0.00062679
0.000555228
0.000617992
0.00062626
0.000600851
0.000625948
0.000554383
0.000617145
0.000626225
0.000600814
0.000625911
0.000554348
0.000617108
0.000626031
0.000600615
0.000625716
0.000554155
0.000616912
0.000626022
0.000600606
0.000625706
0.000554145
0.000616902
0.000625979
0.000600562
0.000625663
0.000554103
0.000616859
0.000625977
0.00060056
0.000625661
0.000554101
0.000616857
0.000625971
0.000600553
0.000625654
0.000554094
0.00061685
0.000625971
0.000600553
0.000625654
0.000554094
0.00061685
0.000625977
0.00060056
0.000625661
0.000554101
0.000616857
0.000625979
0.000600562
0.000625663
0.000554103
0.000616859
0.000626022
0.000600606
0.000625706
0.000554145
0.000616902
0.000626031
0.000600615
0.000625716
0.000554155
0.000616912
0.000626225
0.000600814
0.000625911
0.000554348
0.000617108
0.00062626
0.000600851
0.000625948
0.000554383
0.000617145
0.000627097
0.000601716
0.00062679
0.000555228
0.000617992
0.0006272
0.000601821
0.000626892
0.000555328
0.000618096
0.000630907
0.000605702
0.000630614
0.000559266
0.000621955
0.000629918
0.000604988
0.000629978
0.000558859
0.00061973
0.000626279
0.000601181
0.000626329
0.000554998
0.000615935
0.000626178
0.000601079
0.000626228
0.0005549
0.000615833
0.000625341
0.000600214
0.000625386
0.000554055
0.000614986
0.000625306
0.000600177
0.00062535
0.00055402
0.000614949
0.000625111
0.000599977
0.000625153
0.000553826
0.000614752
0.000625101
0.000599968
0.000625144
0.000553817
0.000614742
0.000625058
0.000599923
0.0006251
0.000553774
0.000614698
0.000625057
0.000599921
0.000625098
0.000553772
0.000614696
0.000625049
0.000599914
0.000625091
0.000553765
0.000614689
0.000625049
0.000599914
0.000625091
0.000553765
0.000614689
0.000625057
0.000599921
0.000625098
0.000553772
0.000614696
0.000625058
0.000599923
0.0006251
0.000553774
0.000614698
0.000625101
0.000599968
0.000625144
0.000553817
0.000614742
0.000625111
0.000599977
0.000625153
0.000553826
0.000614752
0.000625306
0.000600177
0.00062535
0.00055402
0.000614949
0.000625341
0.000600214
0.000625386
0.000554055
0.000614986
0.000626178
0.000601079
0.000626228
0.0005549
0.000615833
0.000626279
0.000601181
0.000626329
0.000554998
0.000615935
0.000629918
0.000604988
0.000629978
0.000558859
0.00061973
0.000628946
0.000604285
0.00062935
0.000558368
0.000617511
0.000625374
0.000600552
0.000625773
0.000554583
0.000613779
0.000625274
0.000600451
0.000625674
0.000554487
0.000613679
0.000624438
0.000599586
0.000624832
0.000553643
0.000612833
0.000624402
0.00059955
0.000624796
0.000553609
0.000612797
0.000624206
0.000599349
0.000624598
0.000553414
0.000612598
0.000624197
0.000599339
0.000624588
0.000553404
0.000612588
0.000624153
0.000599294
0.000624544
0.000553361
0.000612544
0.000624151
0.000599293
0.000624542
0.000553359
0.000612542
0.000624144
0.000599285
0.000624535
0.000553352
0.000612534
0.000624144
0.000599285
0.000624535
0.000553352
0.000612534
0.000624151
0.000599293
0.000624542
0.000553359
0.000612542
0.000624153
0.000599294
0.000624544
0.000553361
0.000612544
0.000624197
0.000599339
0.000624588
0.000553404
0.000612588
0.000624206
0.000599349
0.000624598
0.000553414
0.000612598
0.000624402
0.00059955
0.000624796
0.000553609
0.000612797
0.000624438
0.000599586
0.000624832
0.000553643
0.000612833
0.000625274
0.000600451
0.000625674
0.000554487
0.000613679
0.000625374
0.000600552
0.000625773
0.000554583
0.000613779
0.000628946
0.000604285
0.00062935
0.000558368
0.000617511
0.00062799
0.000603595
0.000628734
0.000557796
0.000615318
0.000624484
0.000599932
0.000625226
0.000554086
0.000611646
0.000624386
0.000599833
0.000625129
0.000553991
0.000611548
0.00062355
0.00059897
0.000624288
0.000553149
0.000610704
0.000623514
0.000598934
0.000624252
0.000553115
0.000610668
0.000623317
0.000598731
0.000624053
0.000552919
0.000610468
0.000623307
0.000598722
0.000624043
0.000552909
0.000610458
0.000623263
0.000598676
0.000623998
0.000552865
0.000610413
0.000623261
0.000598674
0.000623996
0.000552864
0.000610411
0.000623254
0.000598667
0.000623989
0.000552856
0.000610403
0.000623254
0.000598667
0.000623989
0.000552856
0.000610403
0.000623261
0.000598674
0.000623996
0.000552864
0.000610411
0.000623263
0.000598676
0.000623998
0.000552865
0.000610413
0.000623307
0.000598722
0.000624043
0.000552909
0.000610458
0.000623317
0.000598731
0.000624053
0.000552919
0.000610468
0.000623514
0.000598934
0.000624252
0.000553115
0.000610668
0.00062355
0.00059897
0.000624288
0.000553149
0.000610704
0.000624386
0.000599833
0.000625129
0.000553991
0.000611548
0.000624484
0.000599932
0.000625226
0.000554086
0.000611646
0.00062799
0.000603595
0.000628734
0.000557796
0.000615318
0.000627051
0.000602916
0.000628129
0.000557144
0.000613049
0.000623609
0.000599323
0.00062469
0.000553506
0.000609438
0.000623512
0.000599226
0.000624594
0.000553413
0.000609342
0.000622677
0.000598364
0.000623754
0.000552573
0.0006085
0.000622642
0.000598328
0.000623718
0.000552539
0.000608464
0.000622443
0.000598125
0.000623518
0.000552342
0.000608263
0.000622434
0.000598115
0.000623508
0.000552333
0.000608253
0.000622389
0.000598069
0.000623462
0.000552289
0.000608208
0.000622387
0.000598067
0.00062346
0.000552287
0.000608206
0.000622379
0.000598059
0.000623453
0.000552279
0.000608198
0.000622379
0.000598059
0.000623453
0.000552279
0.000608198
0.000622387
0.000598067
0.00062346
0.000552287
0.000608206
0.000622389
0.000598069
0.000623462
0.000552289
0.000608208
0.000622434
0.000598115
0.000623508
0.000552333
0.000608253
0.000622443
0.000598125
0.000623518
0.000552342
0.000608263
0.000622642
0.000598328
0.000623718
0.000552539
0.000608464
0.000622677
0.000598364
0.000623754
0.000552573
0.0006085
0.000623512
0.000599226
0.000624594
0.000553413
0.000609342
0.000623609
0.000599323
0.00062469
0.000553506
0.000609438
0.000627051
0.000602916
0.000628129
0.000557144
0.000613049
-1.84538e-05
1.93822e-05
4.48957e-06
9.55706e-07
3.04207e-07
1.88332e-07
1.66759e-07
1.62676e-07
1.6183e-07
1.6166e-07
1.61615e-07
1.61596e-07
1.61507e-07
1.61403e-07
1.60559e-07
1.59899e-07
1.53487e-07
1.50714e-07
1.11963e-07
1.07847e-07
-1.86875e-05
1.94218e-05
4.55849e-06
9.71725e-07
3.07454e-07
1.88962e-07
1.66871e-07
1.62684e-07
1.61815e-07
1.6164e-07
1.61593e-07
1.61574e-07
1.61483e-07
1.61378e-07
1.6052e-07
1.59853e-07
1.5337e-07
1.5059e-07
1.11665e-07
1.07636e-07
-1.8691e-05
1.942e-05
4.55901e-06
9.71959e-07
3.07524e-07
1.88979e-07
1.66875e-07
1.62684e-07
1.61815e-07
1.61639e-07
1.61593e-07
1.61573e-07
1.61483e-07
1.61377e-07
1.60519e-07
1.59852e-07
1.53368e-07
1.50589e-07
1.11662e-07
1.07634e-07
-1.87104e-05
1.94054e-05
4.55899e-06
9.72434e-07
3.0772e-07
1.89025e-07
1.66886e-07
1.62686e-07
1.61814e-07
1.61638e-07
1.61592e-07
1.61572e-07
1.61482e-07
1.61376e-07
1.60517e-07
1.59849e-07
1.53361e-07
1.50582e-07
1.1165e-07
1.07628e-07
-1.87112e-05
1.94045e-05
4.55887e-06
9.72434e-07
3.07726e-07
1.89027e-07
1.66886e-07
1.62686e-07
1.61814e-07
1.61638e-07
1.61592e-07
1.61572e-07
1.61482e-07
1.61376e-07
1.60517e-07
1.59849e-07
1.53361e-07
1.50582e-07
1.1165e-07
1.07628e-07
-1.87144e-05
1.9401e-05
4.55831e-06
9.72393e-07
3.07729e-07
1.89029e-07
1.66887e-07
1.62686e-07
1.61814e-07
1.61638e-07
1.61591e-07
1.61572e-07
1.61482e-07
1.61376e-07
1.60516e-07
1.59849e-07
1.53361e-07
1.50582e-07
1.1165e-07
1.07628e-07
-1.87146e-05
1.94008e-05
4.55829e-06
9.72392e-07
3.0773e-07
1.89029e-07
1.66887e-07
1.62686e-07
1.61814e-07
1.61638e-07
1.61591e-07
1.61572e-07
1.61482e-07
1.61376e-07
1.60516e-07
1.59849e-07
1.53361e-07
1.50582e-07
1.1165e-07
1.07628e-07
-1.87153e-05
1.94002e-05
4.5582e-06
9.72386e-07
3.0773e-07
1.89029e-07
1.66887e-07
1.62686e-07
1.61814e-07
1.61638e-07
1.61591e-07
1.61572e-07
1.61482e-07
1.61376e-07
1.60516e-07
1.59849e-07
1.53361e-07
1.50582e-07
1.1165e-07
1.07628e-07
-1.87154e-05
1.94002e-05
4.55821e-06
9.72387e-07
3.0773e-07
1.89029e-07
1.66887e-07
1.62686e-07
1.61814e-07
1.61638e-07
1.61591e-07
1.61572e-07
1.61482e-07
1.61376e-07
1.60516e-07
1.59849e-07
1.53361e-07
1.50582e-07
1.1165e-07
1.07628e-07
-1.87155e-05
1.94002e-05
4.55821e-06
9.72388e-07
3.07731e-07
1.89029e-07
1.66887e-07
1.62686e-07
1.61814e-07
1.61638e-07
1.61591e-07
1.61572e-07
1.61482e-07
1.61376e-07
1.60516e-07
1.59849e-07
1.53361e-07
1.50582e-07
1.1165e-07
1.07628e-07
-1.87155e-05
1.94002e-05
4.55821e-06
9.72388e-07
3.07731e-07
1.89029e-07
1.66887e-07
1.62686e-07
1.61814e-07
1.61638e-07
1.61591e-07
1.61572e-07
1.61482e-07
1.61376e-07
1.60516e-07
1.59849e-07
1.53361e-07
1.50582e-07
1.1165e-07
1.07628e-07
-1.87154e-05
1.94002e-05
4.55821e-06
9.72387e-07
3.0773e-07
1.89029e-07
1.66887e-07
1.62686e-07
1.61814e-07
1.61638e-07
1.61591e-07
1.61572e-07
1.61482e-07
1.61376e-07
1.60516e-07
1.59849e-07
1.53361e-07
1.50582e-07
1.1165e-07
1.07628e-07
-1.87153e-05
1.94002e-05
4.5582e-06
9.72386e-07
3.0773e-07
1.89029e-07
1.66887e-07
1.62686e-07
1.61814e-07
1.61638e-07
1.61591e-07
1.61572e-07
1.61482e-07
1.61376e-07
1.60516e-07
1.59849e-07
1.53361e-07
1.50582e-07
1.1165e-07
1.07628e-07
-1.87146e-05
1.94008e-05
4.55829e-06
9.72392e-07
3.0773e-07
1.89029e-07
1.66887e-07
1.62686e-07
1.61814e-07
1.61638e-07
1.61591e-07
1.61572e-07
1.61482e-07
1.61376e-07
1.60516e-07
1.59849e-07
1.53361e-07
1.50582e-07
1.1165e-07
1.07628e-07
-1.87144e-05
1.9401e-05
4.55831e-06
9.72393e-07
3.07729e-07
1.89029e-07
1.66887e-07
1.62686e-07
1.61814e-07
1.61638e-07
1.61591e-07
1.61572e-07
1.61482e-07
1.61376e-07
1.60516e-07
1.59849e-07
1.53361e-07
1.50582e-07
1.1165e-07
1.07628e-07
-1.87112e-05
1.94045e-05
4.55887e-06
9.72434e-07
3.07726e-07
1.89027e-07
1.66886e-07
1.62686e-07
1.61814e-07
1.61638e-07
1.61592e-07
1.61572e-07
1.61482e-07
1.61376e-07
1.60517e-07
1.59849e-07
1.53361e-07
1.50582e-07
1.1165e-07
1.07628e-07
-1.87104e-05
1.94054e-05
4.55899e-06
9.72434e-07
3.0772e-07
1.89025e-07
1.66886e-07
1.62686e-07
1.61814e-07
1.61638e-07
1.61592e-07
1.61572e-07
1.61482e-07
1.61376e-07
1.60517e-07
1.59849e-07
1.53361e-07
1.50582e-07
1.1165e-07
1.07628e-07
-1.8691e-05
1.942e-05
4.55901e-06
9.71959e-07
3.07524e-07
1.88979e-07
1.66875e-07
1.62684e-07
1.61815e-07
1.61639e-07
1.61593e-07
1.61573e-07
1.61483e-07
1.61377e-07
1.60519e-07
1.59852e-07
1.53368e-07
1.50589e-07
1.11662e-07
1.07634e-07
-1.86875e-05
1.94218e-05
4.55849e-06
9.71725e-07
3.07454e-07
1.88962e-07
1.66871e-07
1.62684e-07
1.61815e-07
1.6164e-07
1.61593e-07
1.61574e-07
1.61483e-07
1.61378e-07
1.6052e-07
1.59853e-07
1.5337e-07
1.5059e-07
1.11665e-07
1.07636e-07
-1.84538e-05
1.93822e-05
4.48957e-06
9.55706e-07
3.04207e-07
1.88332e-07
1.66759e-07
1.62676e-07
1.6183e-07
1.6166e-07
1.61615e-07
1.61596e-07
1.61507e-07
1.61403e-07
1.60559e-07
1.59899e-07
1.53487e-07
1.50714e-07
1.11963e-07
1.07847e-07
-1.82008e-05
1.95914e-05
4.53109e-06
9.63583e-07
3.05721e-07
1.88619e-07
1.66812e-07
1.62759e-07
1.61921e-07
1.61749e-07
1.61702e-07
1.61683e-07
1.61594e-07
1.61488e-07
1.60608e-07
1.59885e-07
1.53405e-07
1.50608e-07
1.11369e-07
1.07224e-07
-1.8425e-05
1.96322e-05
4.60073e-06
9.79763e-07
3.09005e-07
1.89256e-07
1.66926e-07
1.62764e-07
1.61906e-07
1.61728e-07
1.61681e-07
1.61662e-07
1.6157e-07
1.61463e-07
1.60568e-07
1.59837e-07
1.53288e-07
1.50483e-07
1.11067e-07
1.07009e-07
-1.84283e-05
1.96303e-05
4.60126e-06
9.8e-07
3.09075e-07
1.89273e-07
1.6693e-07
1.62765e-07
1.61906e-07
1.61728e-07
1.61681e-07
1.61661e-07
1.6157e-07
1.61462e-07
1.60567e-07
1.59836e-07
1.53286e-07
1.50481e-07
1.11063e-07
1.07007e-07
-1.84465e-05
1.96156e-05
4.60124e-06
9.8048e-07
3.09274e-07
1.8932e-07
1.66941e-07
1.62766e-07
1.61905e-07
1.61727e-07
1.6168e-07