/*--------------------------------*- C++ -*----------------------------------*\
  =========                 |
  \\      /  F ield         | OpenFOAM: The Open Source CFD Toolbox
   \\    /   O peration     | Website:  https://openfoam.org
    \\  /    A nd           | Version:  8
     \\/     M anipulation  |
\*---------------------------------------------------------------------------*/
FoamFile
{
    version     2.0;
    format      ascii;
    class       volScalarField;
    location    "1";
    object      S1;
}
// * * * * * * * * * * * * * * * * * * * * * * * * * * * * * * * * * * * * * //

dimensions      [0 1 -1 0 0 0 0];

internalField   nonuniform List<scalar> 
180000
(
-4.72785e-34
-6.68118e-29
-8.72957e-24
-1.0406e-18
-1.12204e-13
-5.60846e-34
-7.88631e-29
-1.02474e-23
-1.21393e-18
-1.2996e-13
-5.63242e-34
-7.91926e-29
-1.02891e-23
-1.21871e-18
-1.30452e-13
-5.7086e-34
-8.02557e-29
-1.04257e-23
-1.23467e-18
-1.32124e-13
-5.71083e-34
-8.0288e-29
-1.04301e-23
-1.23519e-18
-1.32182e-13
-5.71478e-34
-8.03472e-29
-1.04383e-23
-1.23623e-18
-1.32299e-13
-5.7146e-34
-8.03455e-29
-1.04382e-23
-1.23623e-18
-1.32301e-13
-5.71436e-34
-8.03434e-29
-1.04381e-23
-1.23624e-18
-1.32306e-13
-5.71414e-34
-8.03406e-29
-1.04378e-23
-1.23621e-18
-1.32303e-13
-5.71396e-34
-8.03385e-29
-1.04375e-23
-1.23619e-18
-1.32302e-13
-5.71396e-34
-8.03385e-29
-1.04375e-23
-1.23619e-18
-1.32302e-13
-5.71414e-34
-8.03406e-29
-1.04378e-23
-1.23621e-18
-1.32303e-13
-5.71436e-34
-8.03434e-29
-1.04381e-23
-1.23624e-18
-1.32306e-13
-5.7146e-34
-8.03455e-29
-1.04382e-23
-1.23623e-18
-1.32301e-13
-5.71478e-34
-8.03472e-29
-1.04383e-23
-1.23623e-18
-1.32299e-13
-5.71083e-34
-8.0288e-29
-1.04301e-23
-1.23519e-18
-1.32182e-13
-5.7086e-34
-8.02557e-29
-1.04257e-23
-1.23467e-18
-1.32124e-13
-5.63242e-34
-7.91926e-29
-1.02891e-23
-1.21871e-18
-1.30452e-13
-5.60846e-34
-7.88631e-29
-1.02474e-23
-1.21393e-18
-1.2996e-13
-4.72785e-34
-6.68118e-29
-8.72957e-24
-1.0406e-18
-1.12204e-13
-4.72798e-34
-6.70568e-29
-9.09363e-24
-1.5214e-18
-8.50387e-13
-5.60838e-34
-7.91247e-29
-1.06435e-23
-1.74353e-18
-9.49883e-13
-5.63233e-34
-7.94546e-29
-1.06859e-23
-1.74951e-18
-9.52389e-13
-5.70849e-34
-8.05184e-29
-1.08247e-23
-1.76929e-18
-9.61034e-13
-5.71071e-34
-8.05508e-29
-1.08291e-23
-1.76993e-18
-9.61315e-13
-5.71466e-34
-8.06098e-29
-1.08372e-23
-1.77104e-18
-9.61767e-13
-5.71448e-34
-8.0608e-29
-1.08371e-23
-1.77103e-18
-9.61772e-13
-5.71424e-34
-8.06058e-29
-1.08369e-23
-1.77101e-18
-9.61763e-13
-5.71402e-34
-8.06031e-29
-1.08366e-23
-1.77098e-18
-9.61751e-13
-5.71384e-34
-8.06009e-29
-1.08364e-23
-1.77094e-18
-9.6174e-13
-5.71384e-34
-8.06009e-29
-1.08364e-23
-1.77094e-18
-9.6174e-13
-5.71402e-34
-8.06031e-29
-1.08366e-23
-1.77098e-18
-9.61751e-13
-5.71424e-34
-8.06058e-29
-1.08369e-23
-1.77101e-18
-9.61763e-13
-5.71448e-34
-8.0608e-29
-1.08371e-23
-1.77103e-18
-9.61772e-13
-5.71466e-34
-8.06098e-29
-1.08372e-23
-1.77104e-18
-9.61767e-13
-5.71071e-34
-8.05508e-29
-1.08291e-23
-1.76993e-18
-9.61315e-13
-5.70849e-34
-8.05184e-29
-1.08247e-23
-1.76929e-18
-9.61034e-13
-5.63233e-34
-7.94546e-29
-1.06859e-23
-1.74951e-18
-9.52389e-13
-5.60838e-34
-7.91247e-29
-1.06435e-23
-1.74353e-18
-9.49883e-13
-4.72798e-34
-6.70568e-29
-9.09363e-24
-1.5214e-18
-8.50387e-13
-4.79318e-34
-7.53072e-29
-2.00989e-23
-1.5396e-17
-2.13327e-11
-5.67611e-34
-8.78182e-29
-2.23581e-23
-1.66747e-17
-2.31555e-11
-5.70011e-34
-8.81573e-29
-2.24159e-23
-1.67042e-17
-2.31966e-11
-5.77623e-34
-8.92357e-29
-2.25936e-23
-1.68002e-17
-2.3345e-11
-5.77845e-34
-8.92679e-29
-2.25986e-23
-1.68028e-17
-2.33495e-11
-5.78232e-34
-8.93206e-29
-2.26021e-23
-1.68038e-17
-2.33556e-11
-5.78213e-34
-8.93184e-29
-2.26016e-23
-1.68036e-17
-2.33556e-11
-5.78187e-34
-8.93144e-29
-2.25997e-23
-1.68024e-17
-2.3355e-11
-5.78165e-34
-8.93115e-29
-2.25993e-23
-1.68023e-17
-2.33548e-11
-5.78147e-34
-8.9309e-29
-2.25987e-23
-1.68019e-17
-2.33545e-11
-5.78147e-34
-8.9309e-29
-2.25987e-23
-1.68019e-17
-2.33545e-11
-5.78165e-34
-8.93115e-29
-2.25993e-23
-1.68023e-17
-2.33548e-11
-5.78187e-34
-8.93144e-29
-2.25997e-23
-1.68024e-17
-2.3355e-11
-5.78213e-34
-8.93184e-29
-2.26016e-23
-1.68036e-17
-2.33556e-11
-5.78232e-34
-8.93206e-29
-2.26021e-23
-1.68038e-17
-2.33556e-11
-5.77845e-34
-8.92679e-29
-2.25986e-23
-1.68028e-17
-2.33495e-11
-5.77623e-34
-8.92358e-29
-2.25936e-23
-1.68002e-17
-2.3345e-11
-5.70011e-34
-8.81573e-29
-2.24159e-23
-1.67042e-17
-2.31966e-11
-5.67611e-34
-8.78182e-29
-2.23581e-23
-1.66747e-17
-2.31555e-11
-4.79318e-34
-7.53072e-29
-2.00989e-23
-1.5396e-17
-2.13327e-11
-5.72896e-34
-1.85641e-28
-1.59519e-22
-1.81512e-16
-2.52437e-10
-6.62972e-34
-2.01447e-28
-1.67202e-22
-1.90907e-16
-2.66969e-10
-6.65395e-34
-2.01844e-28
-1.67363e-22
-1.91102e-16
-2.67272e-10
-6.72817e-34
-2.02894e-28
-1.67722e-22
-1.91705e-16
-2.68387e-10
-6.73023e-34
-2.02917e-28
-1.67725e-22
-1.9172e-16
-2.6842e-10
-6.73294e-34
-2.02873e-28
-1.67653e-22
-1.91694e-16
-2.68449e-10
-6.73269e-34
-2.02865e-28
-1.67648e-22
-1.91692e-16
-2.6845e-10
-6.73215e-34
-2.02836e-28
-1.67623e-22
-1.91676e-16
-2.68441e-10
-6.73192e-34
-2.02832e-28
-1.67622e-22
-1.91674e-16
-2.6844e-10
-6.73169e-34
-2.02826e-28
-1.67617e-22
-1.91671e-16
-2.68437e-10
-6.73169e-34
-2.02826e-28
-1.67617e-22
-1.91671e-16
-2.68437e-10
-6.73192e-34
-2.02832e-28
-1.67622e-22
-1.91674e-16
-2.6844e-10
-6.73215e-34
-2.02836e-28
-1.67623e-22
-1.91676e-16
-2.68441e-10
-6.73269e-34
-2.02865e-28
-1.67648e-22
-1.91692e-16
-2.6845e-10
-6.73294e-34
-2.02873e-28
-1.67653e-22
-1.91694e-16
-2.68449e-10
-6.73023e-34
-2.02917e-28
-1.67725e-22
-1.9172e-16
-2.6842e-10
-6.72817e-34
-2.02894e-28
-1.67722e-22
-1.91705e-16
-2.68387e-10
-6.65395e-34
-2.01844e-28
-1.67363e-22
-1.91102e-16
-2.67272e-10
-6.62972e-34
-2.01447e-28
-1.67202e-22
-1.90907e-16
-2.66969e-10
-5.72896e-34
-1.85641e-28
-1.59519e-22
-1.81512e-16
-2.52437e-10
-1.31661e-33
-1.00223e-27
-1.11577e-21
-1.22741e-15
-1.57483e-09
-1.40352e-33
-1.02159e-27
-1.13392e-21
-1.25543e-15
-1.61592e-09
-1.40575e-33
-1.02195e-27
-1.13419e-21
-1.25594e-15
-1.61668e-09
-1.41029e-33
-1.02111e-27
-1.13358e-21
-1.25699e-15
-1.61938e-09
-1.41033e-33
-1.02102e-27
-1.13351e-21
-1.257e-15
-1.61946e-09
-1.40961e-33
-1.02017e-27
-1.13279e-21
-1.25664e-15
-1.61937e-09
-1.40954e-33
-1.02012e-27
-1.13276e-21
-1.25662e-15
-1.61937e-09
-1.40927e-33
-1.01991e-27
-1.13258e-21
-1.25651e-15
-1.61931e-09
-1.40924e-33
-1.0199e-27
-1.13257e-21
-1.25651e-15
-1.61931e-09
-1.40918e-33
-1.01986e-27
-1.13254e-21
-1.25649e-15
-1.6193e-09
-1.40918e-33
-1.01986e-27
-1.13254e-21
-1.25649e-15
-1.6193e-09
-1.40924e-33
-1.0199e-27
-1.13257e-21
-1.25651e-15
-1.61931e-09
-1.40927e-33
-1.01991e-27
-1.13258e-21
-1.25651e-15
-1.61931e-09
-1.40954e-33
-1.02012e-27
-1.13276e-21
-1.25662e-15
-1.61937e-09
-1.40961e-33
-1.02017e-27
-1.13279e-21
-1.25664e-15
-1.61937e-09
-1.41033e-33
-1.02102e-27
-1.13351e-21
-1.257e-15
-1.61946e-09
-1.41029e-33
-1.02111e-27
-1.13358e-21
-1.25699e-15
-1.61938e-09
-1.40575e-33
-1.02195e-27
-1.13419e-21
-1.25594e-15
-1.61668e-09
-1.40352e-33
-1.02159e-27
-1.13392e-21
-1.25543e-15
-1.61592e-09
-1.31661e-33
-1.00223e-27
-1.11577e-21
-1.22741e-15
-1.57483e-09
-5.09078e-33
-4.7655e-27
-5.06005e-21
-4.99779e-15
-5.60532e-09
-5.06508e-33
-4.69178e-27
-4.98758e-21
-4.9378e-15
-5.51537e-09
-5.06437e-33
-4.68972e-27
-4.98555e-21
-4.93619e-15
-5.51308e-09
-5.04699e-33
-4.67163e-27
-4.97031e-21
-4.92625e-15
-5.5031e-09
-5.04603e-33
-4.67078e-27
-4.96965e-21
-4.92589e-15
-5.50285e-09
-5.0399e-33
-4.66574e-27
-4.96563e-21
-4.92352e-15
-5.50126e-09
-5.0396e-33
-4.66553e-27
-4.96549e-21
-4.92347e-15
-5.50129e-09
-5.03824e-33
-4.66448e-27
-4.96467e-21
-4.92301e-15
-5.50104e-09
-5.0382e-33
-4.66447e-27
-4.96467e-21
-4.92303e-15
-5.50109e-09
-5.038e-33
-4.66432e-27
-4.96456e-21
-4.92297e-15
-5.50107e-09
-5.038e-33
-4.66432e-27
-4.96456e-21
-4.92297e-15
-5.50107e-09
-5.0382e-33
-4.66447e-27
-4.96467e-21
-4.92303e-15
-5.50109e-09
-5.03824e-33
-4.66448e-27
-4.96467e-21
-4.92301e-15
-5.50104e-09
-5.0396e-33
-4.66553e-27
-4.96549e-21
-4.92347e-15
-5.50129e-09
-5.0399e-33
-4.66574e-27
-4.96563e-21
-4.92352e-15
-5.50126e-09
-5.04603e-33
-4.67078e-27
-4.96965e-21
-4.92589e-15
-5.50285e-09
-5.04699e-33
-4.67163e-27
-4.97031e-21
-4.92625e-15
-5.5031e-09
-5.06437e-33
-4.68972e-27
-4.98555e-21
-4.93619e-15
-5.51308e-09
-5.06508e-33
-4.69178e-27
-4.98758e-21
-4.9378e-15
-5.51537e-09
-5.09078e-33
-4.7655e-27
-5.06005e-21
-4.99779e-15
-5.60532e-09
-1.79986e-32
-1.59194e-26
-1.47591e-20
-1.20291e-14
-1.01605e-08
-1.71818e-32
-1.51274e-26
-1.3938e-20
-1.11992e-14
-9.06978e-09
-1.71632e-32
-1.51095e-26
-1.39198e-20
-1.11814e-14
-9.04677e-09
-1.70408e-32
-1.50067e-26
-1.38278e-20
-1.11027e-14
-8.95345e-09
-1.70358e-32
-1.50028e-26
-1.38246e-20
-1.11004e-14
-8.951e-09
-1.70096e-32
-1.49835e-26
-1.381e-20
-1.10912e-14
-8.94313e-09
-1.70086e-32
-1.49828e-26
-1.38097e-20
-1.10912e-14
-8.94329e-09
-1.70036e-32
-1.49794e-26
-1.38074e-20
-1.10901e-14
-8.94278e-09
-1.70036e-32
-1.49794e-26
-1.38075e-20
-1.10903e-14
-8.94303e-09
-1.7003e-32
-1.4979e-26
-1.38072e-20
-1.10902e-14
-8.9431e-09
-1.7003e-32
-1.4979e-26
-1.38072e-20
-1.10902e-14
-8.9431e-09
-1.70036e-32
-1.49794e-26
-1.38075e-20
-1.10903e-14
-8.94303e-09
-1.70036e-32
-1.49794e-26
-1.38074e-20
-1.10901e-14
-8.94278e-09
-1.70086e-32
-1.49828e-26
-1.38097e-20
-1.10912e-14
-8.94329e-09
-1.70096e-32
-1.49835e-26
-1.381e-20
-1.10912e-14
-8.94313e-09
-1.70358e-32
-1.50028e-26
-1.38246e-20
-1.11004e-14
-8.951e-09
-1.70408e-32
-1.50067e-26
-1.38278e-20
-1.11027e-14
-8.95345e-09
-1.71632e-32
-1.51095e-26
-1.39198e-20
-1.11814e-14
-9.04677e-09
-1.71818e-32
-1.51274e-26
-1.3938e-20
-1.11991e-14
-9.06978e-09
-1.79986e-32
-1.59194e-26
-1.47591e-20
-1.20291e-14
-1.01605e-08
-4.68553e-32
-3.46641e-26
-2.39215e-20
-1.02918e-14
3.88828e-09
-4.27826e-32
-3.10211e-26
-2.03074e-20
-6.80864e-15
7.94764e-09
-4.26954e-32
-3.09444e-26
-2.02327e-20
-6.73768e-15
8.02966e-09
-4.22302e-32
-3.05761e-26
-1.99077e-20
-6.45143e-15
8.35399e-09
-4.22134e-32
-3.0564e-26
-1.98982e-20
-6.44392e-15
8.36233e-09
-4.21369e-32
-3.05138e-26
-1.98641e-20
-6.42208e-15
8.38323e-09
-4.21347e-32
-3.05128e-26
-1.9864e-20
-6.42255e-15
8.38258e-09
-4.21221e-32
-3.05056e-26
-1.98604e-20
-6.42162e-15
8.38262e-09
-4.21225e-32
-3.05061e-26
-1.98611e-20
-6.42236e-15
8.38178e-09
-4.21212e-32
-3.05056e-26
-1.9861e-20
-6.42269e-15
8.38125e-09
-4.21212e-32
-3.05056e-26
-1.9861e-20
-6.42269e-15
8.38125e-09
-4.21225e-32
-3.05061e-26
-1.98611e-20
-6.42236e-15
8.38178e-09
-4.21221e-32
-3.05056e-26
-1.98604e-20
-6.42162e-15
8.38262e-09
-4.21347e-32
-3.05128e-26
-1.9864e-20
-6.42255e-15
8.38258e-09
-4.21369e-32
-3.05138e-26
-1.98641e-20
-6.42208e-15
8.38323e-09
-4.22134e-32
-3.0564e-26
-1.98982e-20
-6.44392e-15
8.36233e-09
-4.22302e-32
-3.05761e-26
-1.99077e-20
-6.45143e-15
8.35399e-09
-4.26954e-32
-3.09444e-26
-2.02327e-20
-6.73768e-15
8.02967e-09
-4.27826e-32
-3.1021e-26
-2.03074e-20
-6.80863e-15
7.94765e-09
-4.68553e-32
-3.46641e-26
-2.39215e-20
-1.02918e-14
3.88828e-09
-7.58029e-32
-3.13819e-26
8.43608e-21
4.47248e-14
8.48287e-08
-6.26189e-32
-2.04337e-26
1.84136e-20
5.34479e-14
9.34907e-08
-6.23492e-32
-2.02132e-26
1.86122e-20
5.36212e-14
9.36615e-08
-6.11166e-32
-1.93083e-26
1.93598e-20
5.42565e-14
9.43061e-08
-6.10782e-32
-1.92838e-26
1.93774e-20
5.42709e-14
9.43216e-08
-6.093e-32
-1.92067e-26
1.94165e-20
5.42951e-14
9.43492e-08
-6.09281e-32
-1.92078e-26
1.94139e-20
5.42925e-14
9.43472e-08
-6.09099e-32
-1.9203e-26
1.94111e-20
5.42877e-14
9.43433e-08
-6.0912e-32
-1.92053e-26
1.94088e-20
5.42856e-14
9.43415e-08
-6.09112e-32
-1.92061e-26
1.94069e-20
5.42837e-14
9.43397e-08
-6.09112e-32
-1.92061e-26
1.94069e-20
5.42837e-14
9.43397e-08
-6.0912e-32
-1.92053e-26
1.94088e-20
5.42856e-14
9.43415e-08
-6.09099e-32
-1.9203e-26
1.94111e-20
5.42877e-14
9.43433e-08
-6.09281e-32
-1.92078e-26
1.94139e-20
5.42925e-14
9.43472e-08
-6.093e-32
-1.92067e-26
1.94165e-20
5.42951e-14
9.43492e-08
-6.10782e-32
-1.92838e-26
1.93774e-20
5.42709e-14
9.43216e-08
-6.11166e-32
-1.93083e-26
1.93598e-20
5.42565e-14
9.43061e-08
-6.23492e-32
-2.02132e-26
1.86122e-20
5.36212e-14
9.36615e-08
-6.26189e-32
-2.04337e-26
1.84136e-20
5.34479e-14
9.34907e-08
-7.58029e-32
-3.13819e-26
8.43608e-21
4.47248e-14
8.48287e-08
-1.31235e-33
1.04386e-25
1.91244e-19
2.38591e-13
2.92217e-07
2.96288e-32
1.27664e-25
2.1001e-19
2.52818e-13
3.03189e-07
3.02386e-32
1.28118e-25
2.10373e-19
2.53097e-13
3.03401e-07
3.24827e-32
1.29562e-25
2.1142e-19
2.53933e-13
3.04091e-07
3.25337e-32
1.29586e-25
2.11432e-19
2.53944e-13
3.04104e-07
3.26463e-32
1.29573e-25
2.11372e-19
2.53907e-13
3.04091e-07
3.2637e-32
1.29561e-25
2.11359e-19
2.53899e-13
3.04086e-07
3.26264e-32
1.2953e-25
2.11323e-19
2.53873e-13
3.0407e-07
3.26186e-32
1.29523e-25
2.11317e-19
2.53869e-13
3.04067e-07
3.26125e-32
1.29515e-25
2.11309e-19
2.53863e-13
3.04063e-07
3.26125e-32
1.29515e-25
2.11309e-19
2.53863e-13
3.04063e-07
3.26186e-32
1.29523e-25
2.11317e-19
2.53869e-13
3.04067e-07
3.26264e-32
1.2953e-25
2.11323e-19
2.53873e-13
3.0407e-07
3.2637e-32
1.29561e-25
2.11359e-19
2.53899e-13
3.04086e-07
3.26463e-32
1.29573e-25
2.11372e-19
2.53907e-13
3.04091e-07
3.25337e-32
1.29586e-25
2.11432e-19
2.53944e-13
3.04104e-07
3.24827e-32
1.29562e-25
2.1142e-19
2.53933e-13
3.04091e-07
3.02386e-32
1.28118e-25
2.10373e-19
2.53097e-13
3.03401e-07
2.96289e-32
1.27664e-25
2.1001e-19
2.52818e-13
3.03189e-07
-1.31235e-33
1.04386e-25
1.91244e-19
2.38591e-13
2.92217e-07
3.62133e-31
4.76901e-25
5.17841e-19
4.26494e-13
2.86764e-07
4.22035e-31
5.18401e-25
5.48057e-19
4.46352e-13
2.978e-07
4.2318e-31
5.19193e-25
5.48634e-19
4.46741e-13
2.98015e-07
4.26209e-31
5.20975e-25
5.49909e-19
4.47804e-13
2.98721e-07
4.26229e-31
5.20968e-25
5.49903e-19
4.47815e-13
2.98734e-07
4.25967e-31
5.20652e-25
5.49652e-19
4.47723e-13
2.98727e-07
4.2592e-31
5.20613e-25
5.49623e-19
4.47709e-13
2.98722e-07
4.25791e-31
5.20491e-25
5.49529e-19
4.47664e-13
2.98707e-07
4.2577e-31
5.20476e-25
5.49518e-19
4.47658e-13
2.98704e-07
4.25742e-31
5.20451e-25
5.49499e-19
4.47648e-13
2.987e-07
4.25742e-31
5.20451e-25
5.49499e-19
4.47648e-13
2.987e-07
4.2577e-31
5.20476e-25
5.49518e-19
4.47658e-13
2.98704e-07
4.25791e-31
5.20491e-25
5.49529e-19
4.47664e-13
2.98707e-07
4.2592e-31
5.20613e-25
5.49623e-19
4.47709e-13
2.98722e-07
4.25967e-31
5.20652e-25
5.49652e-19
4.47723e-13
2.98727e-07
4.26229e-31
5.20968e-25
5.49903e-19
4.47815e-13
2.98734e-07
4.26209e-31
5.20975e-25
5.49909e-19
4.47804e-13
2.98721e-07
4.2318e-31
5.19193e-25
5.48634e-19
4.46741e-13
2.98015e-07
4.22035e-31
5.18401e-25
5.48057e-19
4.46352e-13
2.978e-07
3.62133e-31
4.76901e-25
5.17841e-19
4.26494e-13
2.86764e-07
1.27611e-30
1.18405e-24
9.81454e-19
6.08433e-13
2.81404e-07
1.37888e-30
1.25084e-24
1.02602e-18
6.34044e-13
2.92501e-07
1.38081e-30
1.2521e-24
1.02687e-18
6.34548e-13
2.92719e-07
1.38371e-30
1.25387e-24
1.02835e-18
6.35867e-13
2.9344e-07
1.38361e-30
1.2538e-24
1.02832e-18
6.35877e-13
2.93454e-07
1.38232e-30
1.25288e-24
1.0278e-18
6.35739e-13
2.93451e-07
1.38219e-30
1.25279e-24
1.02775e-18
6.35719e-13
2.93446e-07
1.38177e-30
1.25251e-24
1.02757e-18
6.35656e-13
2.93433e-07
1.38173e-30
1.25248e-24
1.02756e-18
6.35648e-13
2.9343e-07
1.38165e-30
1.25242e-24
1.02752e-18
6.35634e-13
2.93426e-07
1.38165e-30
1.25242e-24
1.02752e-18
6.35634e-13
2.93426e-07
1.38173e-30
1.25248e-24
1.02756e-18
6.35648e-13
2.9343e-07
1.38177e-30
1.25251e-24
1.02757e-18
6.35656e-13
2.93433e-07
1.38219e-30
1.25279e-24
1.02775e-18
6.35719e-13
2.93446e-07
1.38232e-30
1.25288e-24
1.0278e-18
6.35739e-13
2.93451e-07
1.38361e-30
1.2538e-24
1.02832e-18
6.35877e-13
2.93454e-07
1.38371e-30
1.25387e-24
1.02835e-18
6.35867e-13
2.9344e-07
1.38081e-30
1.2521e-24
1.02687e-18
6.34548e-13
2.92719e-07
1.37888e-30
1.25084e-24
1.02602e-18
6.34044e-13
2.92501e-07
1.27611e-30
1.18405e-24
9.81454e-19
6.08433e-13
2.81404e-07
3.07201e-30
2.31712e-24
1.57512e-18
7.84315e-13
2.76084e-07
3.23483e-30
2.41773e-24
1.63718e-18
8.15802e-13
2.87241e-07
3.23784e-30
2.41963e-24
1.63837e-18
8.16425e-13
2.87461e-07
3.23891e-30
2.42098e-24
1.64009e-18
8.18027e-13
2.88198e-07
3.23853e-30
2.42079e-24
1.64002e-18
8.18039e-13
2.88212e-07
3.23517e-30
2.41891e-24
1.63916e-18
8.1786e-13
2.88213e-07
3.23489e-30
2.41875e-24
1.63908e-18
8.17835e-13
2.88209e-07
3.23394e-30
2.4182e-24
1.63881e-18
8.17756e-13
2.88196e-07
3.23385e-30
2.41815e-24
1.63878e-18
8.17746e-13
2.88193e-07
3.23369e-30
2.41805e-24
1.63873e-18
8.17729e-13
2.8819e-07
3.23369e-30
2.41805e-24
1.63873e-18
8.17729e-13
2.8819e-07
3.23385e-30
2.41815e-24
1.63878e-18
8.17746e-13
2.88193e-07
3.23394e-30
2.4182e-24
1.63881e-18
8.17756e-13
2.88196e-07
3.23489e-30
2.41875e-24
1.63908e-18
8.17835e-13
2.88209e-07
3.23517e-30
2.41891e-24
1.63916e-18
8.1786e-13
2.88213e-07
3.23853e-30
2.42079e-24
1.64002e-18
8.18039e-13
2.88212e-07
3.23891e-30
2.42098e-24
1.64009e-18
8.18027e-13
2.88198e-07
3.23784e-30
2.41963e-24
1.63837e-18
8.16425e-13
2.87461e-07
3.23483e-30
2.41773e-24
1.63718e-18
8.15802e-13
2.87241e-07
3.07201e-30
2.31712e-24
1.57512e-18
7.84315e-13
2.76084e-07
6.14446e-30
3.96052e-24
2.29167e-18
9.54048e-13
2.70798e-07
6.38876e-30
4.10531e-24
2.37462e-18
9.91535e-13
2.82015e-07
6.39328e-30
4.10807e-24
2.37622e-18
9.92283e-13
2.82238e-07
6.38993e-30
4.10857e-24
2.37826e-18
9.94193e-13
2.82989e-07
6.38907e-30
4.10821e-24
2.37816e-18
9.94208e-13
2.83004e-07
6.38216e-30
4.10493e-24
2.3769e-18
9.93996e-13
2.83009e-07
6.38163e-30
4.10467e-24
2.37679e-18
9.93967e-13
2.83005e-07
6.37979e-30
4.10376e-24
2.37641e-18
9.93873e-13
2.82993e-07
6.37964e-30
4.10368e-24
2.37637e-18
9.9386e-13
2.8299e-07
6.37933e-30
4.10352e-24
2.3763e-18
9.93841e-13
2.82987e-07
6.37933e-30
4.10352e-24
2.3763e-18
9.93841e-13
2.82987e-07
6.37964e-30
4.10368e-24
2.37637e-18
9.9386e-13
2.8299e-07
6.37979e-30
4.10376e-24
2.37641e-18
9.93873e-13
2.82993e-07
6.38163e-30
4.10467e-24
2.37679e-18
9.93967e-13
2.83005e-07
6.38216e-30
4.10493e-24
2.3769e-18
9.93996e-13
2.83009e-07
6.38907e-30
4.10821e-24
2.37816e-18
9.94208e-13
2.83004e-07
6.38993e-30
4.10857e-24
2.37826e-18
9.94193e-13
2.82989e-07
6.39328e-30
4.10807e-24
2.37622e-18
9.92283e-13
2.82238e-07
6.38876e-30
4.10531e-24
2.37462e-18
9.91535e-13
2.82015e-07
6.14446e-30
3.96052e-24
2.29167e-18
9.54048e-13
2.70798e-07
1.09443e-29
6.19156e-24
3.12377e-18
1.11754e-12
2.65545e-07
1.12973e-29
6.39303e-24
3.23125e-18
1.16115e-12
2.7682e-07
1.13039e-29
6.39693e-24
3.23335e-18
1.16203e-12
2.77044e-07
1.12927e-29
6.3962e-24
3.23585e-18
1.16428e-12
2.77809e-07
1.12911e-29
6.39561e-24
3.23571e-18
1.1643e-12
2.77825e-07
1.12787e-29
6.39049e-24
3.23401e-18
1.16406e-12
2.77834e-07
1.12778e-29
6.3901e-24
3.23386e-18
1.16402e-12
2.7783e-07
1.12746e-29
6.3887e-24
3.23335e-18
1.16392e-12
2.77819e-07
1.12744e-29
6.38859e-24
3.2333e-18
1.1639e-12
2.77816e-07
1.12739e-29
6.38835e-24
3.23321e-18
1.16388e-12
2.77813e-07
1.12739e-29
6.38835e-24
3.23321e-18
1.16388e-12
2.77813e-07
1.12744e-29
6.38859e-24
3.2333e-18
1.1639e-12
2.77816e-07
1.12746e-29
6.3887e-24
3.23335e-18
1.16392e-12
2.77819e-07
1.12778e-29
6.3901e-24
3.23386e-18
1.16402e-12
2.7783e-07
1.12787e-29
6.39049e-24
3.23401e-18
1.16406e-12
2.77834e-07
1.12911e-29
6.39561e-24
3.23571e-18
1.1643e-12
2.77825e-07
1.12927e-29
6.3962e-24
3.23585e-18
1.16428e-12
2.77809e-07
1.13039e-29
6.39693e-24
3.23335e-18
1.16203e-12
2.77044e-07
1.12973e-29
6.39303e-24
3.23125e-18
1.16115e-12
2.7682e-07
1.09443e-29
6.19156e-24
3.12377e-18
1.11754e-12
2.65545e-07
1.79715e-29
9.08017e-24
4.06388e-18
1.27471e-12
2.60318e-07
1.84679e-29
9.35335e-24
4.1998e-18
1.32457e-12
2.71651e-07
1.84774e-29
9.35873e-24
4.20251e-18
1.32558e-12
2.71878e-07
1.84544e-29
9.35652e-24
4.20564e-18
1.32819e-12
2.72656e-07
1.84517e-29
9.35566e-24
4.20546e-18
1.32821e-12
2.72673e-07
1.84314e-29
9.3482e-24
4.20329e-18
1.32795e-12
2.72686e-07
1.84299e-29
9.34764e-24
4.2031e-18
1.32792e-12
2.72682e-07
1.84248e-29
9.34564e-24
4.20245e-18
1.3278e-12
2.72671e-07
1.84245e-29
9.34548e-24
4.20239e-18
1.32778e-12
2.72669e-07
1.84236e-29
9.34514e-24
4.20227e-18
1.32776e-12
2.72666e-07
1.84236e-29
9.34514e-24
4.20227e-18
1.32776e-12
2.72666e-07
1.84245e-29
9.34548e-24
4.20239e-18
1.32778e-12
2.72669e-07
1.84248e-29
9.34564e-24
4.20245e-18
1.3278e-12
2.72671e-07
1.84299e-29
9.34764e-24
4.2031e-18
1.32792e-12
2.72682e-07
1.84314e-29
9.3482e-24
4.20329e-18
1.32795e-12
2.72686e-07
1.84517e-29
9.35566e-24
4.20546e-18
1.32821e-12
2.72673e-07
1.84544e-29
9.35652e-24
4.20564e-18
1.32819e-12
2.72656e-07
1.84774e-29
9.35873e-24
4.20251e-18
1.32558e-12
2.71878e-07
1.84679e-29
9.35334e-24
4.1998e-18
1.32457e-12
2.71651e-07
1.79715e-29
9.08017e-24
4.06388e-18
1.27471e-12
2.60318e-07
2.7767e-29
1.26887e-23
5.1043e-18
1.42547e-12
2.55116e-07
2.84519e-29
1.30515e-23
5.27284e-18
1.4817e-12
2.66506e-07
2.84654e-29
1.30588e-23
5.27624e-18
1.48285e-12
2.66735e-07
2.84259e-29
1.3055e-23
5.28024e-18
1.48584e-12
2.67526e-07
2.84218e-29
1.30538e-23
5.28003e-18
1.48587e-12
2.67543e-07
2.83907e-29
1.30435e-23
5.27737e-18
1.4856e-12
2.6756e-07
2.83885e-29
1.30428e-23
5.27714e-18
1.48556e-12
2.67556e-07
2.83808e-29
1.304e-23
5.27634e-18
1.48543e-12
2.67546e-07
2.83803e-29
1.30398e-23
5.27627e-18
1.48541e-12
2.67544e-07
2.8379e-29
1.30394e-23
5.27612e-18
1.48538e-12
2.67541e-07
2.8379e-29
1.30394e-23
5.27612e-18
1.48538e-12
2.67541e-07
2.83803e-29
1.30398e-23
5.27627e-18
1.48541e-12
2.67544e-07
2.83808e-29
1.304e-23
5.27634e-18
1.48543e-12
2.67546e-07
2.83885e-29
1.30428e-23
5.27714e-18
1.48556e-12
2.67556e-07
2.83907e-29
1.30435e-23
5.27737e-18
1.4856e-12
2.6756e-07
2.84218e-29
1.30538e-23
5.28003e-18
1.48587e-12
2.67543e-07
2.84259e-29
1.3055e-23
5.28024e-18
1.48584e-12
2.67526e-07
2.84653e-29
1.30588e-23
5.27624e-18
1.48285e-12
2.66735e-07
2.84519e-29
1.30515e-23
5.27284e-18
1.4817e-12
2.66506e-07
2.7767e-29
1.26887e-23
5.1043e-18
1.42547e-12
2.55116e-07
4.09049e-29
1.70715e-23
6.23713e-18
1.56973e-12
2.49934e-07
4.18366e-29
1.75451e-23
6.44274e-18
1.63246e-12
2.6138e-07
4.18555e-29
1.75548e-23
6.44694e-18
1.63375e-12
2.61611e-07
4.1795e-29
1.75497e-23
6.45211e-18
1.63716e-12
2.62415e-07
4.1789e-29
1.75482e-23
6.45187e-18
1.63719e-12
2.62433e-07
4.17437e-29
1.75346e-23
6.4487e-18
1.63691e-12
2.62452e-07
4.17406e-29
1.75336e-23
6.44843e-18
1.63687e-12
2.62449e-07
4.17295e-29
1.753e-23
6.44748e-18
1.63673e-12
2.6244e-07
4.17287e-29
1.75297e-23
6.44739e-18
1.63671e-12
2.62437e-07
4.1727e-29
1.75291e-23
6.44722e-18
1.63668e-12
2.62435e-07
4.1727e-29
1.75291e-23
6.44722e-18
1.63668e-12
2.62435e-07
4.17287e-29
1.75297e-23
6.44739e-18
1.63671e-12
2.62437e-07
4.17295e-29
1.753e-23
6.44748e-18
1.63673e-12
2.6244e-07
4.17406e-29
1.75336e-23
6.44843e-18
1.63687e-12
2.62449e-07
4.17437e-29
1.75346e-23
6.4487e-18
1.63691e-12
2.62452e-07
4.1789e-29
1.75482e-23
6.45187e-18
1.63719e-12
2.62433e-07
4.1795e-29
1.75497e-23
6.45211e-18
1.63716e-12
2.62415e-07
4.18555e-29
1.75548e-23
6.44694e-18
1.63375e-12
2.61611e-07
4.18366e-29
1.75451e-23
6.44274e-18
1.63246e-12
2.6138e-07
4.09049e-29
1.70715e-23
6.23713e-18
1.56973e-12
2.49934e-07
5.79835e-29
2.2275e-23
7.4543e-18
1.70741e-12
2.44766e-07
5.92374e-29
2.28842e-23
7.70172e-18
1.77676e-12
2.56268e-07
5.92638e-29
2.2897e-23
7.70684e-18
1.77819e-12
2.56501e-07
5.91778e-29
2.28911e-23
7.71351e-18
1.78204e-12
2.57316e-07
5.91694e-29
2.28891e-23
7.71325e-18
1.78209e-12
2.57335e-07
5.91062e-29
2.28717e-23
7.70958e-18
1.7818e-12
2.57358e-07
5.9102e-29
2.28705e-23
7.70925e-18
1.78176e-12
2.57354e-07
5.90866e-29
2.28659e-23
7.70815e-18
1.78161e-12
2.57346e-07
5.90855e-29
2.28655e-23
7.70804e-18
1.78159e-12
2.57344e-07
5.90831e-29
2.28648e-23
7.70784e-18
1.78156e-12
2.57341e-07
5.90831e-29
2.28648e-23
7.70784e-18
1.78156e-12
2.57341e-07
5.90855e-29
2.28655e-23
7.70804e-18
1.78159e-12
2.57344e-07
5.90866e-29
2.28659e-23
7.70815e-18
1.78161e-12
2.57346e-07
5.9102e-29
2.28705e-23
7.70925e-18
1.78176e-12
2.57354e-07
5.91062e-29
2.28717e-23
7.70958e-18
1.7818e-12
2.57358e-07
5.91694e-29
2.28891e-23
7.71325e-18
1.78209e-12
2.57335e-07
5.91778e-29
2.28911e-23
7.71351e-18
1.78204e-12
2.57316e-07
5.92638e-29
2.2897e-23
7.70684e-18
1.77819e-12
2.56501e-07
5.92374e-29
2.28842e-23
7.70171e-18
1.77676e-12
2.56268e-07
5.79835e-29
2.2275e-23
7.4543e-18
1.70741e-12
2.44766e-07
7.96167e-29
2.83371e-23
8.74756e-18
1.83842e-12
2.39592e-07
8.12895e-29
2.91108e-23
9.0418e-18
1.91451e-12
2.5115e-07
8.1326e-29
2.91274e-23
9.04798e-18
1.9161e-12
2.51385e-07
8.12108e-29
2.91216e-23
9.05653e-18
1.92041e-12
2.52212e-07
8.11996e-29
2.91192e-23
9.05626e-18
1.92046e-12
2.52231e-07
8.11143e-29
2.90976e-23
9.05209e-18
1.92018e-12
2.52257e-07
8.11087e-29
2.9096e-23
9.05172e-18
1.92013e-12
2.52254e-07
8.1088e-29
2.90903e-23
9.05045e-18
1.91998e-12
2.52246e-07
8.10866e-29
2.90898e-23
9.05033e-18
1.91996e-12
2.52244e-07
8.10834e-29
2.90889e-23
9.0501e-18
1.91992e-12
2.52241e-07
8.10834e-29
2.90889e-23
9.0501e-18
1.91992e-12
2.52241e-07
8.10866e-29
2.90898e-23
9.05033e-18
1.91996e-12
2.52244e-07
8.1088e-29
2.90903e-23
9.05045e-18
1.91998e-12
2.52246e-07
8.11087e-29
2.9096e-23
9.05172e-18
1.92013e-12
2.52254e-07
8.11143e-29
2.90976e-23
9.05209e-18
1.92018e-12
2.52257e-07
8.11996e-29
2.91192e-23
9.05626e-18
1.92046e-12
2.52231e-07
8.12108e-29
2.91216e-23
9.05653e-18
1.92041e-12
2.52212e-07
8.1326e-29
2.91274e-23
9.04798e-18
1.9161e-12
2.51385e-07
8.12895e-29
2.91108e-23
9.0418e-18
1.91451e-12
2.5115e-07
7.96167e-29
2.83371e-23
8.74756e-18
1.83842e-12
2.39592e-07
-2.43363e-08
-1.15216e-09
-1.10501e-11
-2.20301e-14
-7.91383e-18
3.10253e-19
3.12162e-19
3.12262e-19
3.12288e-19
3.12293e-19
3.12317e-19
3.12363e-19
3.12676e-19
3.13146e-19
3.17501e-19
3.21885e-19
3.71184e-19
4.01404e-19
1.17677e-18
1.38309e-18
-2.79695e-08
-1.33048e-09
-1.30507e-11
-2.66797e-14
-9.92692e-18
3.10078e-19
3.12158e-19
3.12259e-19
3.12284e-19
3.12286e-19
3.12287e-19
3.12326e-19
3.12643e-19
3.13119e-19
3.17529e-19
3.21954e-19
3.71739e-19
4.02131e-19
1.18462e-18
1.39254e-18
-2.80708e-08
-1.33481e-09
-1.30916e-11
-2.67655e-14
-9.96266e-18
3.10075e-19
3.12158e-19
3.1226e-19
3.12284e-19
3.12287e-19
3.12287e-19
3.12328e-19
3.12646e-19
3.13122e-19
3.17533e-19
3.21959e-19
3.71751e-19
4.02145e-19
1.1847e-18
1.39262e-18
-2.8422e-08
-1.34956e-09
-1.32214e-11
-2.70203e-14
-1.0064e-17
3.10067e-19
3.12159e-19
3.1226e-19
3.12285e-19
3.12287e-19
3.12292e-19
3.12337e-19
3.12656e-19
3.13132e-19
3.17547e-19
3.21974e-19
3.71785e-19
4.02183e-19
1.18489e-18
1.3928e-18
-2.84348e-08
-1.35004e-09
-1.32252e-11
-2.70269e-14
-1.00664e-17
3.10067e-19
3.12159e-19
3.1226e-19
3.12285e-19
3.12287e-19
3.12292e-19
3.12338e-19
3.12656e-19
3.13133e-19
3.17547e-19
3.21975e-19
3.71786e-19
4.02184e-19
1.18489e-18
1.3928e-18
-2.84619e-08
-1.35094e-09
-1.32318e-11
-2.70379e-14
-1.00703e-17
3.10067e-19
3.12159e-19
3.1226e-19
3.12285e-19
3.12287e-19
3.12292e-19
3.12338e-19
3.12657e-19
3.13133e-19
3.17548e-19
3.21975e-19
3.71787e-19
4.02185e-19
1.1849e-18
1.39281e-18
-2.84627e-08
-1.35094e-09
-1.32316e-11
-2.70374e-14
-1.007e-17
3.10067e-19
3.12159e-19
3.1226e-19
3.12285e-19
3.12287e-19
3.12293e-19
3.12338e-19
3.12657e-19
3.13133e-19
3.17548e-19
3.21975e-19
3.71787e-19
4.02185e-19
1.1849e-18
1.39281e-18
-2.84646e-08
-1.35096e-09
-1.32314e-11
-2.70365e-14
-1.00697e-17
3.10067e-19
3.12159e-19
3.1226e-19
3.12285e-19
3.12287e-19
3.12293e-19
3.12338e-19
3.12657e-19
3.13133e-19
3.17548e-19
3.21976e-19
3.71787e-19
4.02185e-19
1.1849e-18
1.39281e-18
-2.84643e-08
-1.35093e-09
-1.32311e-11
-2.70359e-14
-1.00694e-17
3.10067e-19
3.12159e-19
3.1226e-19
3.12285e-19
3.12287e-19
3.12293e-19
3.12338e-19
3.12657e-19
3.13133e-19
3.17548e-19
3.21976e-19
3.71787e-19
4.02185e-19
1.1849e-18
1.39281e-18
-2.84642e-08
-1.35091e-09
-1.32309e-11
-2.70354e-14
-1.00692e-17
3.10067e-19
3.12159e-19
3.1226e-19
3.12285e-19
3.12287e-19
3.12292e-19
3.12338e-19
3.12657e-19
3.13133e-19
3.17548e-19
3.21975e-19
3.71787e-19
4.02185e-19
1.1849e-18
1.39281e-18
-2.84642e-08
-1.35091e-09
-1.32309e-11
-2.70354e-14
-1.00692e-17
3.10067e-19
3.12159e-19
3.1226e-19
3.12285e-19
3.12287e-19
3.12292e-19
3.12338e-19
3.12657e-19
3.13133e-19
3.17548e-19
3.21975e-19
3.71787e-19
4.02185e-19
1.1849e-18
1.39281e-18
-2.84643e-08
-1.35093e-09
-1.32311e-11
-2.70359e-14
-1.00694e-17
3.10067e-19
3.12159e-19
3.1226e-19
3.12285e-19
3.12287e-19
3.12293e-19
3.12338e-19
3.12657e-19
3.13133e-19
3.17548e-19
3.21976e-19
3.71787e-19
4.02185e-19
1.1849e-18
1.39281e-18
-2.84646e-08
-1.35096e-09
-1.32314e-11
-2.70365e-14
-1.00697e-17
3.10067e-19
3.12159e-19
3.1226e-19
3.12285e-19
3.12287e-19
3.12293e-19
3.12338e-19
3.12657e-19
3.13133e-19
3.17548e-19
3.21976e-19
3.71787e-19
4.02185e-19
1.1849e-18
1.39281e-18
-2.84627e-08
-1.35094e-09
-1.32316e-11
-2.70374e-14
-1.007e-17
3.10067e-19
3.12159e-19
3.1226e-19
3.12285e-19
3.12287e-19
3.12293e-19
3.12338e-19
3.12657e-19
3.13133e-19
3.17548e-19
3.21975e-19
3.71787e-19
4.02185e-19
1.1849e-18
1.39281e-18
-2.84619e-08
-1.35094e-09
-1.32318e-11
-2.70379e-14
-1.00703e-17
3.10067e-19
3.12159e-19
3.1226e-19
3.12285e-19
3.12287e-19
3.12292e-19
3.12338e-19
3.12657e-19
3.13133e-19
3.17548e-19
3.21975e-19
3.71787e-19
4.02185e-19
1.1849e-18
1.39281e-18
-2.84348e-08
-1.35004e-09
-1.32252e-11
-2.70269e-14
-1.00664e-17
3.10067e-19
3.12159e-19
3.1226e-19
3.12285e-19
3.12287e-19
3.12292e-19
3.12338e-19
3.12656e-19
3.13133e-19
3.17547e-19
3.21975e-19
3.71786e-19
4.02184e-19
1.18489e-18
1.3928e-18
-2.8422e-08
-1.34956e-09
-1.32214e-11
-2.70203e-14
-1.0064e-17
3.10067e-19
3.12159e-19
3.1226e-19
3.12285e-19
3.12287e-19
3.12292e-19
3.12337e-19
3.12656e-19
3.13132e-19
3.17547e-19
3.21974e-19
3.71785e-19
4.02183e-19
1.18489e-18
1.3928e-18
-2.80708e-08
-1.33481e-09
-1.30916e-11
-2.67655e-14
-9.96266e-18
3.10075e-19
3.12158e-19
3.1226e-19
3.12284e-19
3.12287e-19
3.12287e-19
3.12328e-19
3.12646e-19
3.13122e-19
3.17533e-19
3.21959e-19
3.71751e-19
4.02145e-19
1.1847e-18
1.39262e-18
-2.79695e-08
-1.33048e-09
-1.30507e-11
-2.66797e-14
-9.92692e-18
3.10078e-19
3.12158e-19
3.12259e-19
3.12284e-19
3.12286e-19
3.12287e-19
3.12326e-19
3.12643e-19
3.13119e-19
3.17529e-19
3.21954e-19
3.71739e-19
4.02131e-19
1.18462e-18
1.39254e-18
-2.43363e-08
-1.15216e-09
-1.10501e-11
-2.20301e-14
-7.91383e-18
3.10253e-19
3.12162e-19