/*--------------------------------*- C++ -*----------------------------------*\
  =========                 |
  \\      /  F ield         | OpenFOAM: The Open Source CFD Toolbox
   \\    /   O peration     | Website:  https://openfoam.org
    \\  /    A nd           | Version:  8
     \\/     M anipulation  |
\*---------------------------------------------------------------------------*/
FoamFile
{
    version     2.0;
    format      ascii;
    class       volScalarField;
    location    "4.6";
    object      p;
}
// * * * * * * * * * * * * * * * * * * * * * * * * * * * * * * * * * * * * * //

dimensions      [0 2 -2 0 0 0 0];

internalField   nonuniform List<scalar> 
180000
(
0.000903733
0.000842696
0.000881078
0.000750595
0.000819698
0.000889153
0.000828349
0.000866446
0.000737297
0.000805252
0.000888295
0.00082753
0.000865588
0.000736581
0.000804444
0.000883942
0.000823345
0.000861219
0.00073289
0.000800345
0.00088333
0.000822763
0.000860603
0.00073238
0.000799767
0.000881304
0.000820829
0.000858565
0.000730682
0.000797859
0.000880954
0.000820495
0.000858211
0.00073039
0.000797526
0.000880019
0.000819604
0.000857268
0.000729607
0.000796643
0.000879867
0.00081946
0.000857115
0.00072948
0.000796499
0.000879595
0.0008192
0.00085684
0.000729252
0.000796241
0.000879595
0.0008192
0.00085684
0.000729252
0.000796241
0.000879867
0.00081946
0.000857115
0.00072948
0.000796499
0.000880019
0.000819604
0.000857268
0.000729607
0.000796643
0.000880954
0.000820495
0.000858211
0.00073039
0.000797526
0.000881304
0.000820829
0.000858565
0.000730682
0.000797859
0.00088333
0.000822763
0.000860603
0.00073238
0.000799767
0.000883942
0.000823345
0.000861219
0.00073289
0.000800345
0.000888295
0.00082753
0.000865588
0.000736581
0.000804444
0.000889153
0.000828349
0.000866446
0.000737297
0.000805252
0.000903733
0.000842696
0.000881078
0.000750595
0.000819698
0.000736171
0.000708084
0.000726684
0.000657826
0.000696981
0.000729856
0.000700968
0.000720003
0.000650044
0.000689477
0.000729476
0.000700554
0.000719603
0.000649618
0.000689049
0.000727505
0.000698396
0.000717522
0.000647384
0.000686838
0.000727228
0.000698096
0.000717228
0.000647076
0.000686527
0.000726303
0.000697092
0.000716249
0.000646043
0.000685491
0.000726143
0.000696919
0.000716079
0.000645866
0.00068531
0.000725714
0.000696454
0.000715625
0.000645388
0.000684829
0.000725645
0.000696379
0.000715551
0.000645311
0.000684751
0.00072552
0.000696244
0.000715418
0.000645172
0.00068461
0.00072552
0.000696244
0.000715418
0.000645172
0.00068461
0.000725645
0.000696379
0.000715551
0.000645311
0.000684751
0.000725714
0.000696454
0.000715625
0.000645388
0.000684829
0.000726143
0.000696919
0.000716079
0.000645866
0.00068531
0.000726303
0.000697092
0.000716249
0.000646043
0.000685491
0.000727228
0.000698096
0.000717228
0.000647076
0.000686527
0.000727505
0.000698396
0.000717522
0.000647384
0.000686838
0.000729476
0.000700554
0.000719603
0.000649618
0.000689049
0.000729856
0.000700968
0.000720003
0.000650044
0.000689477
0.000736171
0.000708084
0.000726684
0.000657826
0.000696981
0.000528595
0.000506228
0.000521488
0.000467571
0.000500561
0.000523506
0.000500774
0.000516217
0.000461907
0.000494877
0.000523199
0.000500456
0.000515901
0.000461595
0.000494551
0.000521582
0.000498765
0.000514226
0.000459926
0.000492833
0.000521357
0.000498533
0.000513992
0.000459698
0.000492594
0.000520599
0.000497747
0.000513206
0.000458926
0.00049179
0.000520469
0.000497613
0.000513071
0.000458795
0.000491651
0.000520119
0.00049725
0.000512706
0.000458438
0.000491278
0.000520062
0.000497192
0.000512647
0.000458381
0.000491218
0.00051996
0.000497086
0.000512541
0.000458277
0.000491109
0.00051996
0.000497086
0.000512541
0.000458277
0.000491109
0.000520062
0.000497192
0.000512647
0.000458381
0.000491218
0.000520119
0.00049725
0.000512706
0.000458438
0.000491278
0.000520469
0.000497613
0.000513071
0.000458795
0.000491651
0.000520599
0.000497747
0.000513206
0.000458926
0.00049179
0.000521357
0.000498533
0.000513992
0.000459698
0.000492594
0.000521582
0.000498765
0.000514226
0.000459926
0.000492833
0.000523199
0.000500456
0.000515901
0.000461595
0.000494551
0.000523506
0.000500774
0.000516217
0.000461907
0.000494877
0.000528595
0.000506228
0.000521488
0.000467571
0.000500561
0.000494299
0.000468085
0.000486066
0.000425284
0.000464659
0.000488212
0.000461921
0.0004799
0.000419326
0.000458366
0.000487845
0.00046156
0.000479529
0.000418995
0.000458002
0.000485906
0.000459638
0.000477563
0.000417217
0.000456079
0.000485638
0.000459375
0.00047729
0.000416975
0.000455812
0.000484732
0.000458484
0.00047637
0.000416154
0.000454913
0.000484578
0.000458332
0.000476212
0.000416015
0.000454759
0.000484159
0.000457921
0.000475786
0.000415636
0.000454343
0.000484092
0.000457856
0.000475717
0.000415576
0.000454275
0.00048397
0.000457736
0.000475593
0.000415465
0.000454154
0.00048397
0.000457736
0.000475593
0.000415465
0.000454154
0.000484092
0.000457856
0.000475717
0.000415576
0.000454275
0.000484159
0.000457921
0.000475786
0.000415636
0.000454343
0.000484578
0.000458332
0.000476212
0.000416015
0.000454759
0.000484732
0.000458484
0.00047637
0.000416154
0.000454913
0.000485638
0.000459375
0.00047729
0.000416975
0.000455812
0.000485906
0.000459638
0.000477563
0.000417217
0.000456079
0.000487845
0.00046156
0.000479529
0.000418995
0.000458002
0.000488212
0.000461921
0.0004799
0.000419326
0.000458366
0.000494299
0.000468085
0.000486066
0.000425284
0.000464659
0.000517371
0.00048966
0.000509016
0.000444068
0.000489042
0.00051096
0.000483163
0.00050252
0.000437797
0.000482432
0.000510568
0.000482778
0.000502124
0.000437444
0.000482043
0.000508494
0.000480722
0.000500021
0.000435544
0.000479984
0.000508208
0.000480441
0.000499729
0.000435285
0.000479698
0.000507239
0.000479487
0.000498744
0.000434408
0.000478736
0.000507074
0.000479325
0.000498575
0.000434259
0.000478571
0.000506626
0.000478885
0.000498119
0.000433854
0.000478125
0.000506554
0.000478815
0.000498046
0.000433789
0.000478053
0.000506423
0.000478686
0.000497913
0.000433671
0.000477922
0.000506423
0.000478686
0.000497913
0.000433671
0.000477922
0.000506554
0.000478815
0.000498046
0.000433789
0.000478053
0.000506626
0.000478885
0.000498119
0.000433854
0.000478125
0.000507074
0.000479325
0.000498575
0.000434259
0.000478571
0.000507239
0.000479487
0.000498744
0.000434408
0.000478736
0.000508208
0.000480441
0.000499729
0.000435285
0.000479698
0.000508494
0.000480722
0.000500021
0.000435544
0.000479984
0.000510568
0.000482778
0.000502124
0.000437444
0.000482043
0.00051096
0.000483163
0.00050252
0.000437797
0.000482432
0.000517371
0.00048966
0.000509016
0.000444068
0.000489042
0.000530152
0.000503023
0.00052246
0.000457602
0.000506185
0.000523926
0.000496668
0.000516137
0.000451408
0.00049972
0.000523541
0.000496287
0.000515747
0.000451055
0.000499333
0.000521485
0.000494234
0.000513657
0.000449138
0.000497269
0.000521202
0.000493954
0.000513368
0.000448879
0.000496983
0.00052024
0.000493001
0.000512387
0.000447993
0.000496017
0.000520077
0.000492839
0.00051222
0.000447843
0.000495851
0.000519632
0.000492399
0.000511766
0.000447434
0.000495403
0.000519561
0.000492329
0.000511693
0.000447369
0.000495331
0.000519431
0.000492201
0.00051156
0.00044725
0.0004952
0.000519431
0.000492201
0.00051156
0.00044725
0.0004952
0.000519561
0.000492329
0.000511693
0.000447369
0.000495331
0.000519632
0.000492399
0.000511766
0.000447434
0.000495403
0.000520077
0.000492839
0.00051222
0.000447843
0.000495851
0.00052024
0.000493001
0.000512387
0.000447993
0.000496017
0.000521202
0.000493954
0.000513368
0.000448879
0.000496983
0.000521485
0.000494234
0.000513657
0.000449138
0.000497269
0.000523541
0.000496287
0.000515747
0.000451055
0.000499333
0.000523926
0.000496668
0.000516137
0.000451408
0.00049972
0.000530152
0.000503023
0.00052246
0.000457602
0.000506185
0.000530063
0.000503686
0.000523076
0.000459098
0.000510962
0.000524052
0.000497538
0.000516967
0.000453085
0.000504714
0.000523676
0.000497165
0.000516586
0.000452739
0.000504335
0.00052165
0.000495139
0.000514526
0.000450839
0.000502288
0.000521372
0.000494863
0.000514242
0.000450583
0.000502006
0.000520423
0.000493921
0.000513274
0.000449704
0.000501047
0.000520263
0.000493762
0.00051311
0.000449555
0.000500883
0.000519824
0.000493327
0.000512661
0.000449149
0.000500439
0.000519754
0.000493258
0.00051259
0.000449085
0.000500367
0.000519626
0.000493132
0.000512459
0.000448966
0.000500238
0.000519626
0.000493132
0.000512459
0.000448966
0.000500238
0.000519754
0.000493258
0.00051259
0.000449085
0.000500367
0.000519824
0.000493327
0.000512661
0.000449149
0.000500439
0.000520263
0.000493762
0.00051311
0.000449555
0.000500883
0.000520423
0.000493921
0.000513274
0.000449704
0.000501047
0.000521372
0.000494863
0.000514242
0.000450583
0.000502006
0.00052165
0.000495139
0.000514526
0.000450839
0.000502288
0.000523676
0.000497165
0.000516586
0.000452739
0.000504335
0.000524052
0.000497538
0.000516967
0.000453085
0.000504714
0.000530063
0.000503686
0.000523076
0.000459098
0.000510962
0.000527433
0.00050147
0.000521006
0.000457446
0.000512646
0.000521548
0.000495461
0.000515031
0.000451575
0.000506548
0.000521176
0.000495092
0.000514655
0.000451233
0.000506172
0.000519157
0.000493075
0.000512603
0.000449342
0.000504128
0.000518881
0.000492802
0.000512321
0.000449087
0.000503847
0.000517934
0.000491862
0.000511356
0.000448211
0.000502889
0.000517774
0.000491705
0.000511192
0.000448063
0.000502726
0.000517336
0.000491271
0.000510745
0.000447658
0.000502281
0.000517267
0.000491203
0.000510674
0.000447594
0.00050221
0.000517139
0.000491076
0.000510544
0.000447476
0.00050208
0.000517139
0.000491076
0.000510544
0.000447476
0.00050208
0.000517267
0.000491203
0.000510674
0.000447594
0.00050221
0.000517336
0.000491271
0.000510745
0.000447658
0.000502281
0.000517774
0.000491705
0.000511192
0.000448063
0.000502726
0.000517934
0.000491862
0.000511356
0.000448211
0.000502889
0.000518881
0.000492802
0.000512321
0.000449087
0.000503847
0.000519157
0.000493075
0.000512603
0.000449342
0.000504128
0.000521176
0.000495092
0.000514655
0.000451233
0.000506172
0.000521548
0.000495461
0.000515031
0.000451575
0.000506548
0.000527433
0.00050147
0.000521006
0.000457446
0.000512646
0.000526194
0.000500499
0.000520262
0.00045689
0.000515073
0.000520401
0.000494593
0.000514387
0.000451128
0.000509085
0.000520032
0.000494228
0.000514013
0.000450788
0.00050871
0.00051801
0.00049221
0.000511959
0.000448896
0.00050666
0.000517734
0.000491937
0.000511678
0.000448643
0.000506379
0.000516785
0.000490997
0.000510711
0.000447765
0.000505417
0.000516625
0.000490839
0.000510548
0.000447618
0.000505253
0.000516186
0.000490405
0.0005101
0.000447212
0.000504807
0.000516117
0.000490337
0.000510029
0.000447148
0.000504736
0.000515989
0.00049021
0.000509898
0.00044703
0.000504605
0.000515989
0.00049021
0.000509898
0.00044703
0.000504605
0.000516117
0.000490337
0.000510029
0.000447148
0.000504736
0.000516186
0.000490405
0.0005101
0.000447212
0.000504807
0.000516625
0.000490839
0.000510548
0.000447618
0.000505253
0.000516785
0.000490997
0.000510711
0.000447765
0.000505417
0.000517734
0.000491937
0.000511678
0.000448643
0.000506379
0.00051801
0.00049221
0.000511959
0.000448896
0.00050666
0.000520032
0.000494228
0.000514013
0.000450788
0.00050871
0.000520401
0.000494593
0.000514387
0.000451128
0.000509085
0.000526194
0.000500499
0.000520262
0.00045689
0.000515073
0.000525892
0.00050047
0.000520446
0.00045733
0.000517792
0.000520195
0.000494666
0.000514672
0.000451669
0.000511899
0.000519827
0.000494303
0.0005143
0.000451332
0.000511526
0.000517805
0.000492286
0.000512246
0.000449438
0.000509471
0.000517529
0.000492014
0.000511966
0.000449185
0.00050919
0.000516578
0.000491072
0.000510997
0.000448305
0.000508223
0.000516419
0.000490915
0.000510834
0.000448158
0.00050806
0.000515979
0.00049048
0.000510385
0.000447752
0.000507611
0.00051591
0.000490411
0.000510314
0.000447688
0.00050754
0.000515781
0.000490285
0.000510183
0.000447569
0.000507409
0.000515781
0.000490285
0.000510183
0.000447569
0.000507409
0.00051591
0.000490411
0.000510314
0.000447688
0.00050754
0.000515979
0.00049048
0.000510385
0.000447752
0.000507611
0.000516419
0.000490915
0.000510834
0.000448158
0.00050806
0.000516578
0.000491072
0.000510997
0.000448305
0.000508223
0.000517529
0.000492014
0.000511966
0.000449185
0.00050919
0.000517805
0.000492286
0.000512246
0.000449438
0.000509471
0.000519827
0.000494303
0.0005143
0.000451332
0.000511526
0.000520195
0.000494666
0.000514672
0.000451669
0.000511899
0.000525892
0.00050047
0.000520446
0.00045733
0.000517792
0.000525684
0.000500553
0.000520718
0.00045797
0.000519658
0.000520087
0.000494856
0.000515049
0.000452411
0.000513849
0.000519723
0.000494496
0.00051468
0.000452076
0.000513478
0.000517702
0.00049248
0.000512628
0.000450183
0.000511417
0.000517427
0.000492209
0.000512349
0.00044993
0.000511136
0.000516475
0.000491267
0.00051138
0.000449049
0.000510165
0.000516316
0.00049111
0.000511217
0.000448902
0.000510002
0.000515876
0.000490675
0.000510768
0.000448495
0.000509551
0.000515807
0.000490607
0.000510697
0.000448431
0.00050948
0.000515678
0.00049048
0.000510566
0.000448312
0.000509348
0.000515678
0.00049048
0.000510566
0.000448312
0.000509348
0.000515807
0.000490607
0.000510697
0.000448431
0.00050948
0.000515876
0.000490675
0.000510768
0.000448495
0.000509551
0.000516316
0.00049111
0.000511217
0.000448902
0.000510002
0.000516475
0.000491267
0.00051138
0.000449049
0.000510165
0.000517427
0.000492209
0.000512349
0.00044993
0.000511136
0.000517702
0.00049248
0.000512628
0.000450183
0.000511417
0.000519723
0.000494496
0.00051468
0.000452076
0.000513478
0.000520087
0.000494856
0.000515049
0.000452411
0.000513849
0.000525684
0.000500553
0.000520718
0.00045797
0.000519658
0.000525362
0.000500518
0.000520859
0.000458507
0.000518456
0.000519865
0.000494927
0.000515295
0.00045305
0.000512747
0.000519503
0.000494569
0.000514929
0.000452717
0.000512378
0.000517484
0.000492557
0.00051288
0.000450824
0.000510321
0.000517211
0.000492287
0.000512602
0.000450572
0.000510041
0.000516259
0.000491345
0.000511633
0.00044969
0.00050907
0.0005161
0.000491189
0.000511471
0.000449544
0.000508907
0.000515659
0.000490753
0.000511021
0.000449135
0.000508457
0.000515591
0.000490685
0.000510951
0.000449072
0.000508386
0.000515462
0.000490558
0.000510819
0.000448953
0.000508254
0.000515462
0.000490558
0.000510819
0.000448953
0.000508254
0.000515591
0.000490685
0.000510951
0.000449072
0.000508386
0.000515659
0.000490753
0.000511021
0.000449135
0.000508457
0.0005161
0.000491189
0.000511471
0.000449544
0.000508907
0.000516259
0.000491345
0.000511633
0.00044969
0.00050907
0.000517211
0.000492287
0.000512602
0.000450572
0.000510041
0.000517484
0.000492557
0.00051288
0.000450824
0.000510321
0.000519503
0.000494569
0.000514929
0.000452717
0.000512378
0.000519865
0.000494927
0.000515295
0.00045305
0.000512747
0.000525362
0.000500518
0.000520859
0.000458507
0.000518456
0.000525002
0.000500432
0.000520942
0.000458915
0.000516382
0.000519601
0.000494943
0.000515479
0.000453557
0.000510775
0.000519242
0.000494588
0.000515117
0.000453227
0.000510409
0.000517226
0.000492579
0.000513071
0.000451335
0.000508358
0.000516953
0.00049231
0.000512793
0.000451084
0.00050808
0.000516001
0.000491368
0.000511824
0.0004502
0.00050711
0.000515843
0.000491212
0.000511663
0.000450054
0.000506948
0.000515401
0.000490777
0.000511213
0.000449646
0.000506498
0.000515333
0.000490709
0.000511143
0.000449582
0.000506427
0.000515204
0.000490582
0.000511011
0.000449463
0.000506296
0.000515204
0.000490582
0.000511011
0.000449463
0.000506296
0.000515333
0.000490709
0.000511143
0.000449582
0.000506427
0.000515401
0.000490777
0.000511213
0.000449646
0.000506498
0.000515843
0.000491212
0.000511663
0.000450054
0.000506948
0.000516001
0.000491368
0.000511824
0.0004502
0.00050711
0.000516953
0.00049231
0.000512793
0.000451084
0.00050808
0.000517226
0.000492579
0.000513071
0.000451335
0.000508358
0.000519242
0.000494588
0.000515117
0.000453227
0.000510409
0.000519601
0.000494943
0.000515479
0.000453557
0.000510775
0.000525002
0.000500432
0.000520942
0.000458915
0.000516382
0.000524664
0.000500357
0.000521031
0.000459239
0.000514567
0.000519358
0.000494967
0.000515667
0.000453979
0.00050906
0.000519001
0.000494616
0.000515307
0.000453652
0.000508698
0.000516988
0.00049261
0.000513265
0.000451762
0.000506653
0.000516716
0.000492342
0.000512988
0.000451511
0.000506376
0.000515763
0.0004914
0.000512019
0.000450627
0.000505407
0.000515606
0.000491245
0.000511858
0.000450482
0.000505246
0.000515164
0.000490809
0.000511408
0.000450073
0.000504796
0.000515096
0.000490742
0.000511338
0.000450009
0.000504725
0.000514967
0.000490614
0.000511207
0.00044989
0.000504594
0.000514967
0.000490614
0.000511207
0.00044989
0.000504594
0.000515096
0.000490742
0.000511338
0.000450009
0.000504725
0.000515164
0.000490809
0.000511408
0.000450073
0.000504796
0.000515606
0.000491245
0.000511858
0.000450482
0.000505246
0.000515763
0.0004914
0.000512019
0.000450627
0.000505407
0.000516716
0.000492342
0.000512988
0.000451511
0.000506376
0.000516988
0.00049261
0.000513265
0.000451762
0.000506653
0.000519001
0.000494616
0.000515307
0.000453652
0.000508698
0.000519358
0.000494967
0.000515667
0.000453979
0.00050906
0.000524664
0.000500357
0.000521031
0.000459239
0.000514567
0.000524358
0.000500304
0.000521136
0.000459503
0.000513016
0.000519144
0.000495011
0.000515869
0.00045434
0.000507604
0.00051879
0.000494663
0.000515512
0.000454014
0.000507246
0.000516779
0.000492661
0.000513473
0.000452127
0.000505207
0.000516508
0.000492394
0.000513198
0.000451878
0.000504931
0.000515555
0.000491451
0.000512228
0.000450993
0.000503963
0.000515398
0.000491297
0.000512068
0.000450848
0.000503802
0.000514956
0.000490861
0.000511618
0.000450438
0.000503352
0.000514888
0.000490794
0.000511548
0.000450375
0.000503282
0.000514759
0.000490666
0.000511416
0.000450255
0.000503151
0.000514759
0.000490666
0.000511416
0.000450255
0.000503151
0.000514888
0.000490794
0.000511548
0.000450375
0.000503282
0.000514956
0.000490861
0.000511618
0.000450438
0.000503352
0.000515398
0.000491297
0.000512068
0.000450848
0.000503802
0.000515555
0.000491451
0.000512228
0.000450993
0.000503963
0.000516508
0.000492394
0.000513198
0.000451878
0.000504931
0.000516779
0.000492661
0.000513473
0.000452127
0.000505207
0.00051879
0.000494663
0.000515512
0.000454014
0.000507246
0.000519144
0.000495011
0.000515869
0.00045434
0.000507604
0.000524358
0.000500304
0.000521136
0.000459503
0.000513016
0.000524074
0.000500264
0.000521251
0.000459707
0.000511527
0.00051895
0.000495067
0.000516079
0.000454638
0.00050621
0.000518598
0.000494721
0.000515724
0.000454316
0.000505854
0.000516591
0.000492723
0.000513689
0.000452432
0.000503821
0.000516321
0.000492457
0.000513415
0.000452183
0.000503546
0.000515368
0.000491515
0.000512446
0.000451298
0.00050258
0.000515211
0.000491361
0.000512285
0.000451153
0.000502419
0.000514769
0.000490924
0.000511835
0.000450743
0.00050197
0.000514701
0.000490858
0.000511765
0.00045068
0.0005019
0.000514572
0.00049073
0.000511634
0.000450561
0.000501768
0.000514572
0.00049073
0.000511634
0.000450561
0.000501768
0.000514701
0.000490858
0.000511765
0.00045068
0.0005019
0.000514769
0.000490924
0.000511835
0.000450743
0.00050197
0.000515211
0.000491361
0.000512285
0.000451153
0.000502419
0.000515368
0.000491515
0.000512446
0.000451298
0.00050258
0.000516321
0.000492457
0.000513415
0.000452183
0.000503546
0.000516591
0.000492723
0.000513689
0.000452432
0.000503821
0.000518598
0.000494721
0.000515724
0.000454316
0.000505854
0.00051895
0.000495067
0.000516079
0.000454638
0.00050621
0.000524074
0.000500264
0.000521251
0.000459707
0.000511527
0.000523808
0.000500234
0.000521373
0.000459849
0.000510033
0.000518772
0.00049513
0.000516293
0.000454873
0.000504806
0.000518423
0.000494787
0.000515941
0.000454553
0.000504454
0.000516419
0.000492793
0.000513911
0.000452672
0.000502428
0.00051615
0.000492528
0.000513637
0.000452424
0.000502154
0.000515197
0.000491586
0.000512668
0.000451539
0.000501188
0.00051504
0.000491432
0.000512508
0.000451395
0.000501028
0.000514598
0.000490996
0.000512058
0.000450985
0.000500579
0.00051453
0.000490929
0.000511988
0.000450922
0.000500509
0.000514401
0.000490802
0.000511857
0.000450802
0.000500378
0.000514401
0.000490802
0.000511857
0.000450802
0.000500378
0.00051453
0.000490929
0.000511988
0.000450922
0.000500509
0.000514598
0.000490996
0.000512058
0.000450985
0.000500579
0.00051504
0.000491432
0.000512508
0.000451395
0.000501028
0.000515197
0.000491586
0.000512668
0.000451539
0.000501188
0.00051615
0.000492528
0.000513637
0.000452424
0.000502154
0.000516419
0.000492793
0.000513911
0.000452672
0.000502428
0.000518423
0.000494787
0.000515941
0.000454553
0.000504454
0.000518772
0.00049513
0.000516293
0.000454873
0.000504806
0.000523808
0.000500234
0.000521373
0.000459849
0.000510033
0.000523559
0.000500214
0.000521502
0.000459927
0.000508544
0.000518609
0.0004952
0.000516513
0.000455044
0.000503406
0.000518262
0.000494859
0.000516163
0.000454725
0.000503057
0.000516263
0.00049287
0.000514137
0.00045285
0.000501037
0.000515995
0.000492606
0.000513865
0.000452603
0.000500765
0.000515041
0.000491664
0.000512896
0.000451718
0.0004998
0.000514885
0.000491511
0.000512737
0.000451574
0.000499641
0.000514443
0.000491074
0.000512286
0.000451163
0.000499192
0.000514375
0.000491008
0.000512217
0.000451101
0.000499123
0.000514246
0.000490881
0.000512085
0.000450981
0.000498991
0.000514246
0.000490881
0.000512085
0.000450981
0.000498991
0.000514375
0.000491008
0.000512217
0.000451101
0.000499123
0.000514443
0.000491074
0.000512286
0.000451163
0.000499192
0.000514885
0.000491511
0.000512737
0.000451574
0.000499641
0.000515041
0.000491664
0.000512896
0.000451718
0.0004998
0.000515995
0.000492606
0.000513865
0.000452603
0.000500765
0.000516263
0.00049287
0.000514137
0.00045285
0.000501037
0.000518262
0.000494859
0.000516163
0.000454725
0.000503057
0.000518609
0.0004952
0.000516513
0.000455044
0.000503406
0.000523559
0.000500214
0.000521502
0.000459927
0.000508544
0.000523328
0.000500203
0.000521641
0.000459945
0.000507074
0.000518462
0.000495278
0.00051674
0.000455151
0.000502022
0.000518117
0.00049494
0.000516393
0.000454835
0.000501675
0.000516122
0.000492955
0.000514372
0.000452964
0.000499663
0.000515855
0.000492692
0.000514101
0.000452718
0.000499392
0.000514901
0.000491751
0.000513131
0.000451833
0.000498429
0.000514746
0.000491598
0.000512973
0.00045169
0.00049827
0.000514303
0.000491161
0.000512522
0.00045128
0.000497821
0.000514236
0.000491095
0.000512453
0.000451217
0.000497752
0.000514107
0.000490968
0.000512321
0.000451098
0.000497621
0.000514107
0.000490968
0.000512321
0.000451098
0.000497621
0.000514236
0.000491095
0.000512453
0.000451217
0.000497752
0.000514303
0.000491161
0.000512522
0.00045128
0.000497821
0.000514746
0.000491598
0.000512973
0.00045169
0.00049827
0.000514901
0.000491751
0.000513131
0.000451833
0.000498429
0.000515855
0.000492692
0.000514101
0.000452718
0.000499392
0.000516122
0.000492955
0.000514372
0.000452964
0.000499663
0.000518117
0.00049494
0.000516393
0.000454835
0.000501675
0.000518462
0.000495278
0.00051674
0.000455151
0.000502022
0.000523328
0.000500203
0.000521641
0.000459945
0.000507074
0.000523113
0.000500203
0.000521791
0.000459901
0.000505556
0.00051833
0.000495365
0.000516976
0.000455196
0.000500589
0.000517988
0.000495028
0.000516632
0.000454882
0.000500246
0.000515997
0.000493049
0.000514616
0.000453017
0.000498242
0.000515731
0.000492787
0.000514345
0.000452772
0.000497972
0.000514778
0.000491845
0.000513376
0.000451888
0.000497009
0.000514623
0.000491693
0.000513218
0.000451745
0.000496851
0.00051418
0.000491257
0.000512767
0.000451335
0.000496403
0.000514113
0.000491191
0.000512699
0.000451273
0.000496334
0.000513984
0.000491063
0.000512567
0.000451153
0.000496203
0.000513984
0.000491063
0.000512567
0.000451153
0.000496203
0.000514113
0.000491191
0.000512699
0.000451273
0.000496334
0.00051418
0.000491257
0.000512767
0.000451335
0.000496403
0.000514623
0.000491693
0.000513218
0.000451745
0.000496851
0.000514778
0.000491845
0.000513376
0.000451888
0.000497009
0.000515731
0.000492787
0.000514345
0.000452772
0.000497972
0.000515997
0.000493049
0.000514616
0.000453017
0.000498242
0.000517988
0.000495028
0.000516632
0.000454882
0.000500246
0.00051833
0.000495365
0.000516976
0.000455196
0.000500589
0.000523113
0.000500203
0.000521791
0.000459901
0.000505556
-1.62587e-05
1.58066e-05
2.8235e-06
6.97676e-07
2.51067e-07
1.80718e-07
1.65292e-07
1.62493e-07
1.61805e-07
1.61662e-07
1.61615e-07
1.61593e-07
1.61495e-07
1.61386e-07
1.60519e-07
1.59851e-07
1.53415e-07
1.50644e-07
1.11916e-07
1.07812e-07
-1.63278e-05
1.57671e-05
2.8379e-06
7.02649e-07
2.52287e-07
1.81018e-07
1.65344e-07
1.62492e-07
1.61789e-07
1.61642e-07
1.61593e-07
1.61571e-07
1.61471e-07
1.61359e-07
1.60478e-07
1.59803e-07
1.53295e-07
1.50518e-07
1.11616e-07
1.076e-07
-1.63211e-05
1.57564e-05
2.83454e-06
7.02188e-07
2.52195e-07
1.81006e-07
1.65341e-07
1.62491e-07
1.61789e-07
1.61641e-07
1.61593e-07
1.61571e-07
1.61471e-07
1.61359e-07
1.60477e-07
1.59802e-07
1.53293e-07
1.50516e-07
1.11613e-07
1.07598e-07
-1.62912e-05
1.57034e-05
2.81804e-06
6.99976e-07
2.51762e-07
1.80949e-07
1.65329e-07
1.62489e-07
1.61787e-07
1.6164e-07
1.61592e-07
1.61569e-07
1.61469e-07
1.61357e-07
1.60475e-07
1.59799e-07
1.53286e-07
1.50509e-07
1.11601e-07
1.07592e-07
-1.62855e-05
1.5695e-05
2.81503e-06
6.99505e-07
2.51655e-07
1.80931e-07
1.65324e-07
1.62488e-07
1.61787e-07
1.6164e-07
1.61591e-07
1.61569e-07
1.61469e-07
1.61357e-07
1.60475e-07
1.59799e-07
1.53286e-07
1.50509e-07
1.11601e-07
1.07591e-07
-1.62683e-05
1.56689e-05
2.80604e-06
6.98159e-07
2.51358e-07
1.80883e-07
1.65313e-07
1.62486e-07
1.61786e-07
1.6164e-07
1.61591e-07
1.61569e-07
1.61469e-07
1.61357e-07
1.60474e-07
1.59798e-07
1.53286e-07
1.50509e-07
1.11601e-07
1.07591e-07
-1.6265e-05
1.56641e-05
2.8043e-06
6.97882e-07
2.51294e-07
1.80872e-07
1.6531e-07
1.62485e-07
1.61786e-07
1.6164e-07
1.61591e-07
1.61569e-07
1.61469e-07
1.61357e-07
1.60474e-07
1.59798e-07
1.53286e-07
1.50509e-07
1.11601e-07
1.07591e-07
-1.62569e-05
1.56521e-05
2.80013e-06
6.97251e-07
2.51152e-07
1.80848e-07
1.65305e-07
1.62484e-07
1.61786e-07
1.6164e-07
1.61591e-07
1.61569e-07
1.61469e-07
1.61357e-07
1.60474e-07
1.59798e-07
1.53286e-07
1.50509e-07
1.11601e-07
1.07591e-07
-1.62554e-05
1.565e-05
2.79938e-06
6.97131e-07
2.51124e-07
1.80843e-07
1.65303e-07
1.62484e-07
1.61786e-07
1.6164e-07
1.61591e-07
1.61569e-07
1.61469e-07
1.61357e-07
1.60474e-07
1.59798e-07
1.53286e-07
1.50509e-07
1.11601e-07
1.07591e-07
-1.62531e-05
1.56465e-05
2.79817e-06
6.96947e-07
2.51083e-07
1.80836e-07
1.65302e-07
1.62483e-07
1.61786e-07
1.6164e-07
1.61591e-07
1.61569e-07
1.61469e-07
1.61357e-07
1.60474e-07
1.59798e-07
1.53286e-07
1.50509e-07
1.11601e-07
1.07591e-07
-1.62531e-05
1.56465e-05
2.79817e-06
6.96947e-07
2.51083e-07
1.80836e-07
1.65302e-07
1.62483e-07
1.61786e-07
1.6164e-07
1.61591e-07
1.61569e-07
1.61469e-07
1.61357e-07
1.60474e-07
1.59798e-07
1.53286e-07
1.50509e-07
1.11601e-07
1.07591e-07
-1.62554e-05
1.565e-05
2.79938e-06
6.97131e-07
2.51124e-07
1.80843e-07
1.65303e-07
1.62484e-07
1.61786e-07
1.6164e-07
1.61591e-07
1.61569e-07
1.61469e-07
1.61357e-07
1.60474e-07
1.59798e-07
1.53286e-07
1.50509e-07
1.11601e-07
1.07591e-07
-1.62569e-05
1.56521e-05
2.80013e-06
6.97251e-07
2.51152e-07
1.80848e-07
1.65305e-07
1.62484e-07
1.61786e-07
1.6164e-07
1.61591e-07
1.61569e-07
1.61469e-07
1.61357e-07
1.60474e-07
1.59798e-07
1.53286e-07
1.50509e-07
1.11601e-07
1.07591e-07
-1.6265e-05
1.56641e-05
2.8043e-06
6.97882e-07
2.51294e-07
1.80872e-07
1.6531e-07
1.62485e-07
1.61786e-07
1.6164e-07
1.61591e-07
1.61569e-07
1.61469e-07
1.61357e-07
1.60474e-07
1.59798e-07
1.53286e-07
1.50509e-07
1.11601e-07
1.07591e-07
-1.62683e-05
1.56689e-05
2.80604e-06
6.98159e-07
2.51358e-07
1.80883e-07
1.65313e-07
1.62486e-07
1.61786e-07
1.6164e-07
1.61591e-07
1.61569e-07
1.61469e-07
1.61357e-07
1.60474e-07
1.59798e-07
1.53286e-07
1.50509e-07
1.11601e-07
1.07591e-07
-1.62855e-05
1.5695e-05
2.81503e-06
6.99505e-07
2.51655e-07
1.80931e-07
1.65324e-07
1.62488e-07
1.61787e-07
1.6164e-07
1.61591e-07
1.61569e-07
1.61469e-07
1.61357e-07
1.60475e-07
1.59799e-07
1.53286e-07
1.50509e-07
1.11601e-07
1.07591e-07
-1.62912e-05
1.57034e-05
2.81804e-06
6.99976e-07
2.51762e-07
1.80949e-07
1.65329e-07
1.62489e-07
1.61787e-07
1.6164e-07
1.61592e-07
1.61569e-07
1.61469e-07
1.61357e-07
1.60475e-07
1.59799e-07
1.53286e-07
1.50509e-07
1.11601e-07
1.07592e-07
-1.63211e-05
1.57564e-05
2.83454e-06
7.02188e-07
2.52195e-07
1.81006e-07
1.65341e-07
1.62491e-07
1.61789e-07
1.61641e-07
1.61593e-07
1.61571e-07
1.61471e-07
1.61359e-07
1.60477e-07
1.59802e-07
1.53293e-07
1.50516e-07
1.11613e-07
1.07598e-07
-1.63278e-05
1.57671e-05
2.8379e-06
7.02649e-07
2.52287e-07
1.81018e-07
1.65344e-07
1.62492e-07
1.61789e-07
1.61642e-07
1.61593e-07
1.61571e-07
1.61471e-07
1.61359e-07
1.60478e-07
1.59803e-07
1.53295e-07
1.50518e-07
1.11616e-07
1.076e-07
-1.62587e-05
1.58066e-05
2.8235e-06
6.97676e-07
2.51067e-07
1.80718e-07
1.65292e-07
1.62493e-07
1.61805e-07
1.61662e-07
1.61615e-07
1.61593e-07
1.61495e-07
1.61386e-07
1.60519e-07
1.59851e-07
1.53415e-07
1.50644e-07
1.11916e-07
1.07812e-07
-1.58748e-05
1.59772e-05
2.84895e-06
7.03102e-07
2.52015e-07
1.80938e-07
1.65317e-07
1.62588e-07
1.61896e-07
1.6175e-07
1.61703e-07
1.61681e-07
1.61581e-07
1.6147e-07
1.60564e-07
1.59833e-07
1.53333e-07
1.50537e-07
1.11321e-07
1.07188e-07
-1.59389e-05
1.59376e-05
2.86351e-06
7.0813e-07
2.53249e-07
1.81241e-07
1.65371e-07
1.62585e-07
1.6188e-07
1.6173e-07
1.61681e-07
1.61659e-07
1.61557e-07
1.61444e-07
1.60522e-07
1.59784e-07
1.53212e-07
1.50409e-07
1.11017e-07
1.06972e-07
-1.5932e-05
1.59269e-05
2.86012e-06
7.07665e-07
2.53156e-07
1.81229e-07
1.65368e-07
1.62585e-07
1.6188e-07
1.6173e-07
1.61681e-07
1.61658e-07
1.61557e-07
1.61444e-07
1.60521e-07
1.59783e-07
1.5321e-07
1.50407e-07
1.11014e-07
1.0697e-07
-1.59012e-05
1.58733e-05