/*--------------------------------*- C++ -*----------------------------------*\
  =========                 |
  \\      /  F ield         | OpenFOAM: The Open Source CFD Toolbox
   \\    /   O peration     | Website:  https://openfoam.org
    \\  /    A nd           | Version:  8
     \\/     M anipulation  |
\*---------------------------------------------------------------------------*/
FoamFile
{
    version     2.0;
    format      ascii;
    class       volScalarField;
    location    "4.6";
    object      S1;
}
// * * * * * * * * * * * * * * * * * * * * * * * * * * * * * * * * * * * * * //

dimensions      [0 1 -1 0 0 0 0];

internalField   nonuniform List<scalar> 
180000
(
8.34796e-25
1.91297e-20
3.63318e-16
5.68166e-12
7.41115e-08
9.82666e-25
2.18326e-20
4.06289e-16
6.25365e-12
8.04616e-08
9.84466e-25
2.18639e-20
4.06735e-16
6.25856e-12
8.04998e-08
9.88728e-25
2.19392e-20
4.07823e-16
6.27101e-12
8.06008e-08
9.87767e-25
2.19203e-20
4.07485e-16
6.26584e-12
8.0532e-08
9.84854e-25
2.1864e-20
4.06507e-16
6.25136e-12
8.03457e-08
9.84292e-25
2.1853e-20
4.06311e-16
6.24839e-12
8.03062e-08
9.82935e-25
2.18266e-20
4.05851e-16
6.24156e-12
8.02179e-08
9.82718e-25
2.18223e-20
4.05774e-16
6.24039e-12
8.02021e-08
9.82357e-25
2.18152e-20
4.0565e-16
6.23853e-12
8.01778e-08
9.82357e-25
2.18152e-20
4.0565e-16
6.23853e-12
8.01778e-08
9.82718e-25
2.18223e-20
4.05774e-16
6.24039e-12
8.02021e-08
9.82935e-25
2.18266e-20
4.05851e-16
6.24156e-12
8.02179e-08
9.84292e-25
2.1853e-20
4.06311e-16
6.24839e-12
8.03062e-08
9.84854e-25
2.1864e-20
4.06507e-16
6.25136e-12
8.03457e-08
9.87767e-25
2.19203e-20
4.07485e-16
6.26584e-12
8.0532e-08
9.88728e-25
2.19392e-20
4.07823e-16
6.27101e-12
8.06008e-08
9.84466e-25
2.18639e-20
4.06735e-16
6.25856e-12
8.04998e-08
9.82666e-25
2.18326e-20
4.06289e-16
6.25365e-12
8.04616e-08
8.34796e-25
1.91297e-20
3.63318e-16
5.68166e-12
7.41115e-08
8.34787e-25
1.91291e-20
3.63293e-16
5.68413e-12
7.88743e-08
9.82656e-25
2.1832e-20
4.06262e-16
6.25617e-12
8.54162e-08
9.84456e-25
2.18632e-20
4.06708e-16
6.26108e-12
8.54519e-08
9.88718e-25
2.19386e-20
4.07796e-16
6.27351e-12
8.55421e-08
9.87757e-25
2.19196e-20
4.07458e-16
6.26834e-12
8.54683e-08
9.84844e-25
2.18633e-20
4.0648e-16
6.25385e-12
8.52677e-08
9.84283e-25
2.18523e-20
4.06284e-16
6.25087e-12
8.52253e-08
9.82925e-25
2.18259e-20
4.05824e-16
6.24404e-12
8.51302e-08
9.82708e-25
2.18216e-20
4.05748e-16
6.24286e-12
8.51132e-08
9.82347e-25
2.18146e-20
4.05623e-16
6.241e-12
8.50869e-08
9.82347e-25
2.18146e-20
4.05623e-16
6.241e-12
8.50869e-08
9.82708e-25
2.18216e-20
4.05748e-16
6.24286e-12
8.51132e-08
9.82925e-25
2.18259e-20
4.05824e-16
6.24404e-12
8.51302e-08
9.84283e-25
2.18523e-20
4.06284e-16
6.25087e-12
8.52253e-08
9.84844e-25
2.18633e-20
4.0648e-16
6.25385e-12
8.52677e-08
9.87757e-25
2.19196e-20
4.07458e-16
6.26834e-12
8.54683e-08
9.88718e-25
2.19386e-20
4.07796e-16
6.27351e-12
8.55421e-08
9.84456e-25
2.18632e-20
4.06708e-16
6.26108e-12
8.54519e-08
9.82656e-25
2.1832e-20
4.06262e-16
6.25617e-12
8.54162e-08
8.34787e-25
1.91291e-20
3.63293e-16
5.68413e-12
7.88743e-08
8.3478e-25
1.9128e-20
3.6326e-16
5.69857e-12
1.00042e-07
9.82647e-25
2.18307e-20
4.06224e-16
6.27085e-12
1.07143e-07
9.84447e-25
2.1862e-20
4.0667e-16
6.27575e-12
1.0717e-07
9.88709e-25
2.19373e-20
4.07758e-16
6.28812e-12
1.0723e-07
9.87749e-25
2.19183e-20
4.07421e-16
6.28294e-12
1.07141e-07
9.84836e-25
2.18621e-20
4.06442e-16
6.2684e-12
1.06897e-07
9.84274e-25
2.1851e-20
4.06247e-16
6.26542e-12
1.06846e-07
9.82917e-25
2.18246e-20
4.05787e-16
6.25856e-12
1.0673e-07
9.827e-25
2.18203e-20
4.0571e-16
6.25738e-12
1.06709e-07
9.82339e-25
2.18133e-20
4.05586e-16
6.25551e-12
1.06677e-07
9.82339e-25
2.18133e-20
4.05586e-16
6.25551e-12
1.06677e-07
9.827e-25
2.18203e-20
4.0571e-16
6.25738e-12
1.06709e-07
9.82917e-25
2.18246e-20
4.05787e-16
6.25856e-12
1.0673e-07
9.84274e-25
2.1851e-20
4.06247e-16
6.26542e-12
1.06846e-07
9.84836e-25
2.18621e-20
4.06442e-16
6.2684e-12
1.06897e-07
9.87749e-25
2.19183e-20
4.07421e-16
6.28294e-12
1.07141e-07
9.88709e-25
2.19373e-20
4.07758e-16
6.28812e-12
1.0723e-07
9.84447e-25
2.1862e-20
4.0667e-16
6.27575e-12
1.0717e-07
9.82647e-25
2.18307e-20
4.06224e-16
6.27085e-12
1.07143e-07
8.3478e-25
1.9128e-20
3.6326e-16
5.69857e-12
1.00042e-07
8.34771e-25
1.91261e-20
3.63236e-16
5.74013e-12
1.47581e-07
9.82636e-25
2.18285e-20
4.06194e-16
6.31284e-12
1.55438e-07
9.84438e-25
2.18598e-20
4.0664e-16
6.31771e-12
1.5545e-07
9.887e-25
2.19351e-20
4.07728e-16
6.32994e-12
1.55471e-07
9.87739e-25
2.19161e-20
4.0739e-16
6.32472e-12
1.55358e-07
9.84826e-25
2.18599e-20
4.06412e-16
6.31008e-12
1.55053e-07
9.84265e-25
2.18488e-20
4.06217e-16
6.30707e-12
1.54988e-07
9.82907e-25
2.18225e-20
4.05757e-16
6.30017e-12
1.54842e-07
9.8269e-25
2.18182e-20
4.0568e-16
6.29898e-12
1.54815e-07
9.82329e-25
2.18111e-20
4.05556e-16
6.29709e-12
1.54774e-07
9.82329e-25
2.18111e-20
4.05556e-16
6.29709e-12
1.54774e-07
9.8269e-25
2.18182e-20
4.0568e-16
6.29898e-12
1.54815e-07
9.82907e-25
2.18225e-20
4.05757e-16
6.30017e-12
1.54842e-07
9.84265e-25
2.18488e-20
4.06217e-16
6.30707e-12
1.54988e-07
9.84826e-25
2.18599e-20
4.06412e-16
6.31008e-12
1.55053e-07
9.87739e-25
2.19161e-20
4.0739e-16
6.32472e-12
1.55358e-07
9.887e-25
2.19351e-20
4.07728e-16
6.32994e-12
1.55471e-07
9.84438e-25
2.18598e-20
4.0664e-16
6.31771e-12
1.5545e-07
9.82636e-25
2.18285e-20
4.06194e-16
6.31284e-12
1.55438e-07
8.34771e-25
1.91261e-20
3.63236e-16
5.74013e-12
1.47581e-07
8.3476e-25
1.91234e-20
3.63248e-16
5.82605e-12
2.24828e-07
9.82622e-25
2.18254e-20
4.06197e-16
6.39919e-12
2.33367e-07
9.84426e-25
2.18567e-20
4.06643e-16
6.404e-12
2.33358e-07
9.88688e-25
2.1932e-20
4.07731e-16
6.41597e-12
2.33322e-07
9.87727e-25
2.19131e-20
4.07393e-16
6.41069e-12
2.33181e-07
9.84814e-25
2.18568e-20
4.06416e-16
6.39585e-12
2.32803e-07
9.84253e-25
2.18458e-20
4.0622e-16
6.39281e-12
2.32721e-07
9.82895e-25
2.18194e-20
4.0576e-16
6.38581e-12
2.32539e-07
9.82678e-25
2.18151e-20
4.05684e-16
6.38461e-12
2.32505e-07
9.82317e-25
2.1808e-20
4.05559e-16
6.3827e-12
2.32454e-07
9.82317e-25
2.1808e-20
4.05559e-16
6.3827e-12
2.32454e-07
9.82678e-25
2.18151e-20
4.05684e-16
6.38461e-12
2.32505e-07
9.82895e-25
2.18194e-20
4.0576e-16
6.38581e-12
2.32539e-07
9.84253e-25
2.18458e-20
4.0622e-16
6.39281e-12
2.32721e-07
9.84814e-25
2.18568e-20
4.06416e-16
6.39585e-12
2.32803e-07
9.87727e-25
2.19131e-20
4.07393e-16
6.41069e-12
2.33181e-07
9.88688e-25
2.1932e-20
4.07731e-16
6.41597e-12
2.33322e-07
9.84426e-25
2.18567e-20
4.06643e-16
6.404e-12
2.33358e-07
9.82622e-25
2.18254e-20
4.06197e-16
6.39919e-12
2.33367e-07
8.3476e-25
1.91234e-20
3.63248e-16
5.82605e-12
2.24828e-07
8.34748e-25
1.91201e-20
3.63334e-16
5.97419e-12
3.32719e-07
9.82606e-25
2.18215e-20
4.06271e-16
6.54749e-12
3.41718e-07
9.84412e-25
2.18529e-20
4.06718e-16
6.55221e-12
3.4168e-07
9.88674e-25
2.19282e-20
4.07806e-16
6.56371e-12
3.41541e-07
9.87713e-25
2.19093e-20
4.07468e-16
6.55833e-12
3.41366e-07
9.848e-25
2.1853e-20
4.0649e-16
6.54319e-12
3.40896e-07
9.84239e-25
2.1842e-20
4.06294e-16
6.54008e-12
3.40793e-07
9.82882e-25
2.18156e-20
4.05835e-16
6.53294e-12
3.40566e-07
9.82665e-25
2.18113e-20
4.05758e-16
6.53171e-12
3.40524e-07
9.82303e-25
2.18043e-20
4.05634e-16
6.52976e-12
3.40459e-07
9.82303e-25
2.18043e-20
4.05634e-16
6.52976e-12
3.40459e-07
9.82665e-25
2.18113e-20
4.05758e-16
6.53171e-12
3.40524e-07
9.82882e-25
2.18156e-20
4.05835e-16
6.53294e-12
3.40566e-07
9.84239e-25
2.1842e-20
4.06294e-16
6.54008e-12
3.40793e-07
9.848e-25
2.1853e-20
4.0649e-16
6.54319e-12
3.40896e-07
9.87713e-25
2.19093e-20
4.07468e-16
6.55833e-12
3.41366e-07
9.88674e-25
2.19282e-20
4.07806e-16
6.56371e-12
3.41541e-07
9.84412e-25
2.18529e-20
4.06718e-16
6.55221e-12
3.4168e-07
9.82606e-25
2.18215e-20
4.06271e-16
6.54749e-12
3.41718e-07
8.34748e-25
1.91201e-20
3.63334e-16
5.97419e-12
3.32719e-07
8.34734e-25
1.91163e-20
3.63546e-16
6.20311e-12
4.72424e-07
9.82586e-25
2.18171e-20
4.06468e-16
6.77594e-12
4.81561e-07
9.84396e-25
2.18485e-20
4.06915e-16
6.78051e-12
4.81477e-07
9.88657e-25
2.19238e-20
4.08001e-16
6.79128e-12
4.8116e-07
9.87697e-25
2.19049e-20
4.07663e-16
6.78574e-12
4.80943e-07
9.84784e-25
2.18486e-20
4.06685e-16
6.77015e-12
4.80348e-07
9.84223e-25
2.18376e-20
4.06489e-16
6.76696e-12
4.80221e-07
9.82865e-25
2.18113e-20
4.06029e-16
6.75961e-12
4.79934e-07
9.82648e-25
2.1807e-20
4.05953e-16
6.75834e-12
4.7988e-07
9.82287e-25
2.17999e-20
4.05828e-16
6.75632e-12
4.79798e-07
9.82287e-25
2.17999e-20
4.05828e-16
6.75632e-12
4.79798e-07
9.82648e-25
2.1807e-20
4.05953e-16
6.75834e-12
4.7988e-07
9.82865e-25
2.18113e-20
4.06029e-16
6.75961e-12
4.79934e-07
9.84223e-25
2.18376e-20
4.06489e-16
6.76696e-12
4.80221e-07
9.84784e-25
2.18486e-20
4.06685e-16
6.77015e-12
4.80348e-07
9.87697e-25
2.19049e-20
4.07663e-16
6.78574e-12
4.80943e-07
9.88657e-25
2.19238e-20
4.08001e-16
6.79128e-12
4.8116e-07
9.84396e-25
2.18485e-20
4.06915e-16
6.78051e-12
4.81477e-07
9.82586e-25
2.18171e-20
4.06468e-16
6.77594e-12
4.81561e-07
8.34734e-25
1.91163e-20
3.63546e-16
6.20311e-12
4.72424e-07
8.34716e-25
1.9112e-20
3.63947e-16
6.53212e-12
6.45242e-07
9.82563e-25
2.18122e-20
4.06849e-16
7.10346e-12
6.54068e-07
9.84376e-25
2.18436e-20
4.07297e-16
7.1078e-12
6.53921e-07
9.88638e-25
2.19189e-20
4.0838e-16
7.11746e-12
6.53323e-07
9.87677e-25
2.19e-20
4.08042e-16
7.11172e-12
6.53051e-07
9.84765e-25
2.18438e-20
4.07063e-16
7.09548e-12
6.52291e-07
9.84203e-25
2.18328e-20
4.06867e-16
7.09217e-12
6.52131e-07
9.82846e-25
2.18064e-20
4.06406e-16
7.08451e-12
6.51766e-07
9.82629e-25
2.18021e-20
4.06329e-16
7.08319e-12
6.51699e-07
9.82268e-25
2.17951e-20
4.06205e-16
7.08108e-12
6.51593e-07
9.82268e-25
2.17951e-20
4.06205e-16
7.08108e-12
6.51593e-07
9.82629e-25
2.18021e-20
4.06329e-16
7.08319e-12
6.51699e-07
9.82846e-25
2.18064e-20
4.06406e-16
7.08451e-12
6.51766e-07
9.84203e-25
2.18328e-20
4.06867e-16
7.09217e-12
6.52131e-07
9.84765e-25
2.18438e-20
4.07063e-16
7.09548e-12
6.52291e-07
9.87677e-25
2.19e-20
4.08042e-16
7.11172e-12
6.53051e-07
9.88638e-25
2.19189e-20
4.0838e-16
7.11746e-12
6.53323e-07
9.84376e-25
2.18436e-20
4.07297e-16
7.1078e-12
6.53921e-07
9.82563e-25
2.18122e-20
4.06849e-16
7.10346e-12
6.54068e-07
8.34716e-25
1.9112e-20
3.63947e-16
6.53212e-12
6.45242e-07
8.34697e-25
1.91077e-20
3.64614e-16
6.98106e-12
8.51937e-07
9.82537e-25
2.18069e-20
4.07489e-16
7.54935e-12
8.59833e-07
9.84354e-25
2.18385e-20
4.07937e-16
7.55337e-12
8.59603e-07
9.88615e-25
2.19138e-20
4.09016e-16
7.56142e-12
8.58592e-07
9.87655e-25
2.18948e-20
4.08677e-16
7.55539e-12
8.58253e-07
9.84742e-25
2.18386e-20
4.07696e-16
7.53826e-12
8.57276e-07
9.84181e-25
2.18276e-20
4.075e-16
7.53479e-12
8.57077e-07
9.82824e-25
2.18013e-20
4.07039e-16
7.52671e-12
8.5661e-07
9.82607e-25
2.1797e-20
4.06962e-16
7.52532e-12
8.56526e-07
9.82246e-25
2.17899e-20
4.06837e-16
7.52309e-12
8.56391e-07
9.82246e-25
2.17899e-20
4.06837e-16
7.52309e-12
8.56391e-07
9.82607e-25
2.1797e-20
4.06962e-16
7.52532e-12
8.56526e-07
9.82824e-25
2.18013e-20
4.07039e-16
7.52671e-12
8.5661e-07
9.84181e-25
2.18276e-20
4.075e-16
7.53479e-12
8.57077e-07
9.84742e-25
2.18386e-20
4.07696e-16
7.53826e-12
8.57276e-07
9.87655e-25
2.18948e-20
4.08677e-16
7.55539e-12
8.58253e-07
9.88615e-25
2.19138e-20
4.09016e-16
7.56142e-12
8.58592e-07
9.84354e-25
2.18385e-20
4.07937e-16
7.55337e-12
8.59603e-07
9.82537e-25
2.18069e-20
4.07489e-16
7.54935e-12
8.59833e-07
8.34697e-25
1.91077e-20
3.64614e-16
6.98106e-12
8.51937e-07
8.34675e-25
1.91033e-20
3.65635e-16
7.56944e-12
1.09195e-06
9.82507e-25
2.18017e-20
4.08474e-16
8.13245e-12
1.09809e-06
9.84328e-25
2.18332e-20
4.08922e-16
8.13604e-12
1.09776e-06
9.8859e-25
2.19085e-20
4.09994e-16
8.14185e-12
1.09618e-06
9.8763e-25
2.18896e-20
4.09655e-16
8.13546e-12
1.09576e-06
9.84717e-25
2.18335e-20
4.08671e-16
8.11714e-12
1.0945e-06
9.84156e-25
2.18224e-20
4.08474e-16
8.11345e-12
1.09425e-06
9.82799e-25
2.17961e-20
4.08011e-16
8.10482e-12
1.09366e-06
9.82582e-25
2.17918e-20
4.07934e-16
8.10333e-12
1.09355e-06
9.8222e-25
2.17848e-20
4.07809e-16
8.10095e-12
1.09338e-06
9.8222e-25
2.17848e-20
4.07809e-16
8.10095e-12
1.09338e-06
9.82582e-25
2.17918e-20
4.07934e-16
8.10333e-12
1.09355e-06
9.82799e-25
2.17961e-20
4.08011e-16
8.10482e-12
1.09366e-06
9.84156e-25
2.18224e-20
4.08474e-16
8.11345e-12
1.09425e-06
9.84717e-25
2.18335e-20
4.08671e-16
8.11714e-12
1.0945e-06
9.8763e-25
2.18896e-20
4.09655e-16
8.13546e-12
1.09576e-06
9.8859e-25
2.19085e-20
4.09994e-16
8.14185e-12
1.09618e-06
9.84328e-25
2.18332e-20
4.08922e-16
8.13604e-12
1.09776e-06
9.82507e-25
2.18017e-20
4.08474e-16
8.13245e-12
1.09809e-06
8.34675e-25
1.91033e-20
3.65635e-16
7.56944e-12
1.09195e-06
8.3465e-25
1.90993e-20
3.67009e-16
8.15598e-12
1.08922e-06
9.82474e-25
2.17966e-20
4.09804e-16
8.71369e-12
1.0954e-06
9.843e-25
2.18282e-20
4.10251e-16
8.71685e-12
1.09506e-06
9.88562e-25
2.19035e-20
4.11314e-16
8.72045e-12
1.09351e-06
9.87601e-25
2.18846e-20
4.10974e-16
8.71369e-12
1.09309e-06
9.84689e-25
2.18284e-20
4.09986e-16
8.6942e-12
1.09185e-06
9.84128e-25
2.18174e-20
4.09788e-16
8.6903e-12
1.09161e-06
9.82771e-25
2.17911e-20
4.09324e-16
8.68111e-12
1.09102e-06
9.82554e-25
2.17868e-20
4.09246e-16
8.67954e-12
1.09091e-06
9.82193e-25
2.17798e-20
4.09121e-16
8.67699e-12
1.09074e-06
9.82193e-25
2.17798e-20
4.09121e-16
8.67699e-12
1.09074e-06
9.82554e-25
2.17868e-20
4.09246e-16
8.67954e-12
1.09091e-06
9.82771e-25
2.17911e-20
4.09324e-16
8.68111e-12
1.09102e-06
9.84128e-25
2.18174e-20
4.09788e-16
8.6903e-12
1.09161e-06
9.84689e-25
2.18284e-20
4.09986e-16
8.6942e-12
1.09185e-06
9.87601e-25
2.18846e-20
4.10974e-16
8.71369e-12
1.09309e-06
9.88562e-25
2.19035e-20
4.11314e-16
8.72045e-12
1.09351e-06
9.843e-25
2.18282e-20
4.10251e-16
8.71685e-12
1.09506e-06
9.82474e-25
2.17966e-20
4.09804e-16
8.71369e-12
1.0954e-06
8.3465e-25
1.90993e-20
3.67009e-16
8.15598e-12
1.08922e-06
8.34624e-25
1.90958e-20
3.68736e-16
8.74069e-12
1.08658e-06
9.82438e-25
2.17919e-20
4.11477e-16
9.29306e-12
1.09278e-06
9.84269e-25
2.18236e-20
4.11924e-16
9.2958e-12
1.09245e-06
9.88531e-25
2.18989e-20
4.12976e-16
9.29721e-12
1.09092e-06
9.87571e-25
2.188e-20
4.12633e-16
9.29009e-12
1.09051e-06
9.84659e-25
2.18238e-20
4.1164e-16
9.26942e-12
1.08928e-06
9.84097e-25
2.18128e-20
4.11442e-16
9.26531e-12
1.08904e-06
9.8274e-25
2.17865e-20
4.10975e-16
9.25558e-12
1.08845e-06
9.82523e-25
2.17822e-20
4.10897e-16
9.25392e-12
1.08835e-06
9.82162e-25
2.17752e-20
4.10771e-16
9.25121e-12
1.08818e-06
9.82162e-25
2.17752e-20
4.10771e-16
9.25121e-12
1.08818e-06
9.82523e-25
2.17822e-20
4.10897e-16
9.25392e-12
1.08835e-06
9.8274e-25
2.17865e-20
4.10975e-16
9.25558e-12
1.08845e-06
9.84097e-25
2.18128e-20
4.11442e-16
9.26531e-12
1.08904e-06
9.84659e-25
2.18238e-20
4.1164e-16
9.26942e-12
1.08928e-06
9.87571e-25
2.188e-20
4.12633e-16
9.29009e-12
1.09051e-06
9.88531e-25
2.18989e-20
4.12976e-16
9.29721e-12
1.09092e-06
9.84269e-25
2.18236e-20
4.11924e-16
9.29579e-12
1.09245e-06
9.82438e-25
2.17919e-20
4.11477e-16
9.29306e-12
1.09278e-06
8.34624e-25
1.90958e-20
3.68736e-16
8.74069e-12
1.08658e-06
8.34596e-25
1.9093e-20
3.70814e-16
9.32347e-12
1.08402e-06
9.824e-25
2.17879e-20
4.13493e-16
9.87048e-12
1.09025e-06
9.84236e-25
2.18197e-20
4.13939e-16
9.8728e-12
1.08992e-06
9.88498e-25
2.18949e-20
4.14977e-16
9.87204e-12
1.08841e-06
9.87538e-25
2.1876e-20
4.14632e-16
9.86456e-12
1.088e-06
9.84626e-25
2.18199e-20
4.13633e-16
9.84274e-12
1.08678e-06
9.84065e-25
2.18089e-20
4.13434e-16
9.83842e-12
1.08654e-06
9.82708e-25
2.17826e-20
4.12964e-16
9.82815e-12
1.08597e-06
9.82491e-25
2.17783e-20
4.12886e-16
9.8264e-12
1.08586e-06
9.8213e-25
2.17712e-20
4.12758e-16
9.82353e-12
1.0857e-06
9.8213e-25
2.17712e-20
4.12758e-16
9.82353e-12
1.0857e-06
9.82491e-25
2.17783e-20
4.12886e-16
9.8264e-12
1.08586e-06
9.82708e-25
2.17826e-20
4.12964e-16
9.82815e-12
1.08597e-06
9.84065e-25
2.18089e-20
4.13434e-16
9.83842e-12
1.08654e-06
9.84626e-25
2.18199e-20
4.13633e-16
9.84274e-12
1.08678e-06
9.87538e-25
2.1876e-20
4.14632e-16
9.86456e-12
1.088e-06
9.88498e-25
2.18949e-20
4.14977e-16
9.87204e-12
1.08841e-06
9.84236e-25
2.18197e-20
4.13939e-16
9.8728e-12
1.08992e-06
9.824e-25
2.17878e-20
4.13493e-16
9.87048e-12
1.09025e-06
8.34596e-25
1.9093e-20
3.70814e-16
9.32347e-12
1.08402e-06
8.34568e-25
1.90913e-20
3.73243e-16
9.90426e-12
1.08153e-06
9.8236e-25
2.17847e-20
4.15851e-16
1.04459e-11
1.08778e-06
9.84202e-25
2.18166e-20
4.16295e-16
1.04478e-11
1.08746e-06
9.88464e-25
2.18918e-20
4.17317e-16
1.04449e-11
1.08597e-06
9.87504e-25
2.18729e-20
4.16971e-16
1.0437e-11
1.08556e-06
9.84592e-25
2.18168e-20
4.15964e-16
1.04141e-11
1.08436e-06
9.84031e-25
2.18058e-20
4.15763e-16
1.04095e-11
1.08412e-06
9.82674e-25
2.17795e-20
4.1529e-16
1.03987e-11
1.08355e-06
9.82457e-25
2.17752e-20
4.15211e-16
1.03969e-11
1.08344e-06
9.82096e-25
2.17682e-20
4.15083e-16
1.03939e-11
1.08328e-06
9.82096e-25
2.17682e-20
4.15083e-16
1.03939e-11
1.08328e-06
9.82457e-25
2.17752e-20
4.15211e-16
1.03969e-11
1.08344e-06
9.82674e-25
2.17795e-20
4.1529e-16
1.03987e-11
1.08355e-06
9.84031e-25
2.18058e-20
4.15763e-16
1.04095e-11
1.08412e-06
9.84592e-25
2.18168e-20
4.15964e-16
1.04141e-11
1.08436e-06
9.87504e-25
2.18729e-20
4.1697e-16
1.0437e-11
1.08556e-06
9.88464e-25
2.18918e-20
4.17317e-16
1.04449e-11
1.08597e-06
9.84202e-25
2.18166e-20
4.16295e-16
1.04478e-11
1.08746e-06
9.82359e-25
2.17847e-20
4.15851e-16
1.04459e-11
1.08778e-06
8.34568e-25
1.90913e-20
3.73243e-16
9.90426e-12
1.08153e-06
8.3454e-25
1.90909e-20
3.76021e-16
1.0483e-11
1.07911e-06
9.82318e-25
2.17827e-20
4.18549e-16
1.10191e-11
1.08537e-06
9.84168e-25
2.18147e-20
4.18991e-16
1.10206e-11
1.08506e-06
9.88429e-25
2.18898e-20
4.19995e-16
1.10156e-11
1.08359e-06
9.87469e-25
2.18709e-20
4.19646e-16
1.10074e-11
1.08319e-06
9.84557e-25
2.18148e-20
4.18631e-16
1.09833e-11
1.08199e-06
9.83996e-25
2.18038e-20
4.18429e-16
1.09786e-11
1.08176e-06
9.82639e-25
2.17775e-20
4.17952e-16
1.09673e-11
1.08119e-06
9.82422e-25
2.17732e-20
4.17872e-16
1.09653e-11
1.08109e-06
9.82061e-25
2.17662e-20
4.17743e-16
1.09622e-11
1.08092e-06
9.82061e-25
2.17662e-20
4.17743e-16
1.09622e-11
1.08092e-06
9.82422e-25
2.17732e-20
4.17872e-16
1.09653e-11
1.08109e-06
9.82639e-25
2.17775e-20
4.17952e-16
1.09673e-11
1.08119e-06
9.83996e-25
2.18038e-20
4.18429e-16
1.09786e-11
1.08176e-06
9.84557e-25
2.18148e-20
4.18631e-16
1.09833e-11
1.08199e-06
9.87469e-25
2.18709e-20
4.19646e-16
1.10074e-11
1.08319e-06
9.88429e-25
2.18898e-20
4.19995e-16
1.10156e-11
1.08359e-06
9.84167e-25
2.18147e-20
4.18991e-16
1.10206e-11
1.08506e-06
9.82318e-25
2.17827e-20
4.18549e-16
1.10191e-11
1.08537e-06
8.3454e-25
1.90909e-20
3.76021e-16
1.0483e-11
1.07911e-06
8.34513e-25
1.90919e-20
3.79147e-16
1.10595e-11
1.07675e-06
9.82277e-25
2.1782e-20
4.21586e-16
1.15902e-11
1.08303e-06
9.84133e-25
2.18141e-20
4.22026e-16
1.15913e-11
1.08272e-06
9.88394e-25
2.18891e-20
4.2301e-16
1.15841e-11
1.08127e-06
9.87435e-25
2.18702e-20
4.22658e-16
1.15756e-11
1.08087e-06
9.84523e-25
2.18141e-20
4.21634e-16
1.15504e-11
1.07969e-06
9.83962e-25
2.18031e-20
4.2143e-16
1.15455e-11
1.07945e-06
9.82605e-25
2.17769e-20
4.20948e-16
1.15336e-11
1.07889e-06
9.82388e-25
2.17726e-20
4.20868e-16
1.15316e-11
1.07879e-06
9.82027e-25
2.17655e-20
4.20737e-16
1.15283e-11
1.07863e-06
9.82027e-25
2.17655e-20
4.20737e-16
1.15283e-11
1.07863e-06
9.82388e-25
2.17726e-20
4.20868e-16
1.15316e-11
1.07879e-06
9.82605e-25
2.17769e-20
4.20948e-16
1.15336e-11
1.07889e-06
9.83962e-25
2.18031e-20
4.2143e-16
1.15455e-11
1.07945e-06
9.84523e-25
2.18141e-20
4.21634e-16
1.15504e-11
1.07969e-06
9.87435e-25
2.18702e-20
4.22658e-16
1.15756e-11
1.08087e-06
9.88394e-25
2.18891e-20
4.2301e-16
1.15841e-11
1.08127e-06
9.84133e-25
2.18141e-20
4.22026e-16
1.15913e-11
1.08272e-06
9.82277e-25
2.1782e-20
4.21586e-16
1.15902e-11
1.08303e-06
8.34513e-25
1.90919e-20
3.79147e-16
1.10595e-11
1.07675e-06
8.34489e-25
1.90946e-20
3.82619e-16
1.16337e-11
1.07444e-06
9.82236e-25
2.17829e-20
4.24961e-16
1.21589e-11
1.08074e-06
9.841e-25
2.18151e-20
4.25399e-16
1.21596e-11
1.08043e-06
9.88361e-25
2.189e-20
4.2636e-16
1.21504e-11
1.079e-06
9.87401e-25
2.18711e-20
4.26005e-16
1.21416e-11
1.07861e-06
9.8449e-25
2.1815e-20
4.2497e-16
1.21153e-11
1.07743e-06
9.83929e-25
2.1804e-20
4.24764e-16
1.21101e-11
1.0772e-06
9.82572e-25
2.17777e-20
4.24278e-16
1.20978e-11
1.07665e-06
9.82355e-25
2.17735e-20
4.24197e-16
1.20956e-11
1.07655e-06
9.81994e-25
2.17664e-20
4.24065e-16
1.20922e-11
1.07639e-06
9.81994e-25
2.17664e-20
4.24065e-16
1.20922e-11
1.07639e-06
9.82355e-25
2.17735e-20
4.24197e-16
1.20956e-11
1.07655e-06
9.82572e-25
2.17777e-20
4.24278e-16
1.20978e-11
1.07665e-06
9.83929e-25
2.1804e-20
4.24764e-16
1.21101e-11
1.0772e-06
9.8449e-25
2.1815e-20
4.2497e-16
1.21153e-11
1.07743e-06
9.87401e-25
2.18711e-20
4.26005e-16
1.21416e-11
1.07861e-06
9.88361e-25
2.189e-20
4.2636e-16
1.21504e-11
1.079e-06
9.841e-25
2.18151e-20
4.25399e-16
1.21596e-11
1.08043e-06
9.82236e-25
2.17829e-20
4.24961e-16
1.21589e-11
1.08074e-06
8.34489e-25
1.90946e-20
3.82619e-16
1.16337e-11
1.07444e-06
8.34469e-25
1.90993e-20
3.86437e-16
1.22056e-11
1.07219e-06
9.82198e-25
2.17856e-20
4.28672e-16
1.27253e-11
1.0785e-06
9.8407e-25
2.18179e-20
4.29107e-16
1.27256e-11
1.0782e-06
9.8833e-25
2.18926e-20
4.30044e-16
1.27144e-11
1.07679e-06
9.87371e-25
2.18738e-20
4.29686e-16
1.27052e-11
1.07639e-06
9.84459e-25
2.18177e-20
4.28639e-16
1.26777e-11
1.07523e-06
9.83898e-25
2.18067e-20
4.28431e-16
1.26724e-11
1.075e-06
9.82542e-25
2.17804e-20
4.2794e-16
1.26595e-11
1.07445e-06
9.82325e-25
2.17761e-20
4.27858e-16
1.26573e-11
1.07435e-06
9.81964e-25
2.17691e-20
4.27724e-16
1.26537e-11
1.07419e-06
9.81964e-25
2.17691e-20
4.27724e-16
1.26537e-11
1.07419e-06
9.82325e-25
2.17761e-20
4.27858e-16
1.26573e-11
1.07435e-06
9.82542e-25
2.17804e-20
4.2794e-16
1.26595e-11
1.07445e-06
9.83898e-25
2.18067e-20
4.28431e-16
1.26724e-11
1.075e-06
9.84459e-25
2.18177e-20
4.28639e-16
1.26777e-11
1.07523e-06
9.87371e-25
2.18738e-20
4.29686e-16
1.27052e-11
1.07639e-06
9.8833e-25
2.18926e-20
4.30044e-16
1.27144e-11
1.07679e-06
9.84069e-25
2.18179e-20
4.29107e-16
1.27256e-11
1.0782e-06
9.82198e-25
2.17856e-20
4.28672e-16
1.27253e-11
1.0785e-06
8.34469e-25
1.90993e-20
3.86437e-16
1.22056e-11
1.07219e-06
8.34454e-25
1.91061e-20
3.90598e-16
1.2775e-11
1.06998e-06
9.82164e-25
2.17903e-20
4.32718e-16
1.32891e-11
1.0763e-06
9.84043e-25
2.18227e-20
4.3315e-16
1.32891e-11
1.076e-06
9.88303e-25
2.18973e-20
4.3406e-16
1.32758e-11
1.07461e-06
9.87344e-25
2.18784e-20
4.33698e-16
1.32663e-11
1.07422e-06
9.84433e-25
2.18223e-20
4.32639e-16
1.32378e-11
1.07307e-06
9.83872e-25
2.18113e-20
4.32429e-16
1.32323e-11
1.07284e-06
9.82515e-25
2.1785e-20
4.31931e-16
1.32189e-11
1.07229e-06
9.82298e-25
2.17807e-20
4.31848e-16
1.32166e-11
1.0722e-06
9.81937e-25
2.17737e-20
4.31713e-16
1.32128e-11
1.07204e-06
9.81937e-25
2.17737e-20
4.31713e-16
1.32128e-11
1.07204e-06
9.82298e-25
2.17807e-20
4.31848e-16
1.32166e-11
1.0722e-06
9.82515e-25
2.1785e-20
4.31931e-16
1.32189e-11
1.07229e-06
9.83872e-25
2.18113e-20
4.32429e-16
1.32323e-11
1.07284e-06
9.84433e-25
2.18223e-20
4.32639e-16
1.32378e-11
1.07307e-06
9.87344e-25
2.18784e-20
4.33698e-16
1.32663e-11
1.07422e-06
9.88303e-25
2.18973e-20
4.3406e-16
1.32758e-11
1.07461e-06
9.84043e-25
2.18227e-20
4.3315e-16
1.32891e-11
1.076e-06
9.82163e-25
2.17902e-20
4.32718e-16
1.32891e-11
1.0763e-06
8.34454e-25
1.91061e-20
3.90598e-16
1.2775e-11
1.06998e-06
8.34446e-25
1.91153e-20
3.95101e-16
1.33418e-11
1.06777e-06
9.82134e-25
2.17972e-20
4.37097e-16
1.38503e-11
1.07411e-06
9.84022e-25
2.18297e-20
4.37525e-16
1.38499e-11
1.07381e-06
9.88282e-25
2.19041e-20
4.38406e-16
1.38347e-11
1.07244e-06
9.87323e-25
2.18853e-20
4.38041e-16
1.38248e-11
1.07205e-06
9.84412e-25
2.18291e-20
4.36968e-16
1.37953e-11
1.07091e-06
9.83851e-25
2.18181e-20
4.36756e-16
1.37896e-11
1.07068e-06
9.82494e-25
2.17918e-20
4.36252e-16
1.37757e-11
1.07014e-06
9.82277e-25
2.17875e-20
4.36168e-16
1.37733e-11
1.07004e-06
9.81916e-25
2.17805e-20
4.3603e-16
1.37694e-11
1.06989e-06
9.81916e-25
2.17805e-20
4.3603e-16
1.37694e-11
1.06989e-06
9.82277e-25
2.17875e-20
4.36168e-16
1.37733e-11
1.07004e-06
9.82494e-25
2.17918e-20
4.36252e-16
1.37757e-11
1.07014e-06
9.83851e-25
2.18181e-20
4.36756e-16
1.37896e-11
1.07068e-06
9.84411e-25
2.18291e-20
4.36968e-16
1.37953e-11
1.07091e-06
9.87323e-25
2.18853e-20
4.3804e-16
1.38248e-11
1.07205e-06
9.88282e-25
2.19041e-20
4.38406e-16
1.38347e-11
1.07244e-06
9.84022e-25
2.18297e-20
4.37525e-16
1.38499e-11
1.07381e-06
9.82134e-25
2.17972e-20
4.37097e-16
1.38503e-11
1.07411e-06
8.34446e-25
1.91153e-20
3.95101e-16
1.33418e-11
1.06777e-06
0.00175986
0.000495389
2.51799e-05
2.78546e-07
5.147e-10
1.00089e-12
8.6238e-13
8.67827e-13
8.69018e-13
8.69241e-13
8.69322e-13
8.69807e-13
8.72195e-13
8.75019e-13
8.97925e-13
9.17128e-13
1.11671e-12
1.22319e-12
3.90474e-12
4.55736e-12
0.00188523
0.000533112
2.76347e-05
3.14578e-07
6.06108e-10
1.04428e-12
8.62202e-13
8.67777e-13
8.68996e-13
8.69225e-13
8.69291e-13
8.69685e-13
8.72127e-13
8.75001e-13
8.98313e-13
9.17752e-13
1.12003e-12
1.22723e-12
3.94045e-12
4.60103e-12
0.00188554
0.00053301
2.7607e-05
3.14105e-07
6.04818e-10
1.0437e-12
8.62198e-13
8.67777e-13
8.68997e-13
8.69226e-13
8.69292e-13
8.69692e-13
8.72136e-13
8.75012e-13
8.98332e-13
9.17775e-13
1.12009e-12
1.22729e-12
3.94081e-12
4.60139e-12
0.00188677
0.000532103
2.74143e-05
3.10733e-07
5.95612e-10
1.03955e-12
8.62192e-13
8.67777e-13
8.68999e-13
8.69229e-13
8.69298e-13
8.69727e-13
8.72176e-13
8.75056e-13
8.98405e-13
9.17861e-13
1.12031e-12
1.22753e-12
3.94195e-12
4.6024e-12
0.00188511
0.000531511
2.73658e-05
3.10002e-07
5.93662e-10
1.03862e-12
8.62192e-13
8.67777e-13
8.68999e-13
8.69229e-13
8.69297e-13
8.69728e-13
8.72177e-13
8.75058e-13
8.98408e-13
9.17864e-13
1.12032e-12
1.22754e-12
3.94198e-12
4.60241e-12
0.00188084
0.00052972
2.72066e-05
3.07571e-07
5.87245e-10
1.0356e-12
8.62193e-13
8.67778e-13
8.68999e-13
8.69229e-13
8.69298e-13
8.6973e-13
8.7218e-13
8.7506e-13
8.98412e-13
9.17869e-13
1.12033e-12
1.22755e-12
3.94202e-12
4.60244e-12
0.00187989
0.000529384
2.71799e-05
3.07176e-07
5.86194e-10
1.03509e-12
8.62194e-13
8.67778e-13
8.69e-13
8.69229e-13
8.69298e-13
8.69731e-13
8.7218e-13
8.75061e-13
8.98412e-13
9.1787e-13
1.12033e-12
1.22755e-12
3.94202e-12
4.60245e-12
0.00187785
0.000528551
2.71077e-05
3.06088e-07
5.83337e-10
1.03374e-12
8.62195e-13
8.67778e-13
8.69e-13
8.69229e-13
8.69298e-13
8.69731e-13
8.7218e-13
8.75061e-13
8.98413e-13
9.1787e-13
1.12033e-12
1.22755e-12
3.94202e-12
4.60245e-12
0.00187746
0.000528414
2.70968e-05
3.05927e-07
5.82909e-10
1.03354e-12
8.62195e-13
8.67778e-13
8.69e-13
8.69229e-13
8.69298e-13
8.69731e-13
8.7218e-13
8.75061e-13
8.98413e-13
9.1787e-13
1.12033e-12
1.22755e-12
3.94203e-12
4.60245e-12
0.00187689
0.00052818
2.70765e-05
3.05623e-07
5.8211e-10
1.03316e-12
8.62195e-13
8.67778e-13
8.68999e-13
8.69229e-13
8.69298e-13
8.6973e-13
8.7218e-13
8.75061e-13
8.98412e-13
9.1787e-13
1.12033e-12
1.22755e-12
3.94202e-12
4.60244e-12
0.00187689
0.00052818
2.70765e-05
3.05623e-07
5.8211e-10
1.03316e-12
8.62195e-13
8.67778e-13
8.68999e-13
8.69229e-13
8.69298e-13
8.6973e-13
8.7218e-13
8.75061e-13
8.98412e-13
9.1787e-13
1.12033e-12
1.22755e-12
3.94202e-12
4.60244e-12
0.00187746
0.000528414
2.70968e-05
3.05927e-07
5.82909e-10
1.03354e-12
8.62195e-13
8.67778e-13
8.69e-13
8.69229e-13
8.69298e-13
8.69731e-13
8.7218e-13
8.75061e-13
8.98413e-13
9.1787e-13
1.12033e-12
1.22755e-12
3.94203e-12
4.60245e-12
0.00187785
0.000528551
2.71077e-05
3.06088e-07
5.83337e-10
1.03374e-12
8.62195e-13
8.67778e-13
8.69e-13
8.69229e-13
8.69298e-13
8.69731e-13
8.7218e-13
8.75061e-13
8.98413e-13
9.1787e-13
1.12033e-12
1.22755e-12
3.94202e-12
4.60245e-12
0.00187989
0.000529384
2.71799e-05
3.07176e-07
5.86194e-10
1.03509e-12
8.62194e-13
8.67778e-13
8.69e-13
8.69229e-13
8.69298e-13
8.69731e-13
8.7218e-13
8.75061e-13
8.98412e-13
9.1787e-13
1.12033e-12
1.22755e-12
3.94202e-12
4.60245e-12
0.00188084
0.00052972
2.72066e-05
3.07571e-07
5.87245e-10
1.0356e-12
8.62193e-13
8.67778e-13
8.68999e-13
8.69229e-13
8.69298e-13
8.6973e-13
8.7218e-13
8.7506e-13
8.98412e-13
9.17869e-13
1.12033e-12
1.22755e-12
3.94202e-12
4.60244e-12
0.00188511
0.000531511
2.73658e-05
3.10002e-07
5.93662e-10
1.03862e-12
8.62192e-13
8.67777e-13
8.68999e-13
8.69229e-13
8.69297e-13
8.69728e-13
8.72177e-13
8.75058e-13
8.98408e-13
9.17864e-13
1.12032e-12
1.22754e-12
3.94198e-12
4.60241e-12
0.00188677
0.000532103
2.74143e-05
3.10733e-07
5.95612e-10
1.03955e-12
8.62192e-13
8.67777e-13
8.68999e-13
8.69229e-13
8.69298e-13
8.69727e-13
8.72176e-13
8.75056e-13
8.98405e-13
9.17861e-13
1.12031e-12
1.22753e-12
3.94195e-12
4.6024e-12
0.00188554
0.00053301
2.7607e-05
3.14105e-07
6.04818e-10
1.0437e-12
8.62198e-13
8.67777e-13
8.68997e-13
8.69226e-13
8.69292e-13
8.69692e-13
8.72136e-13
8.75012e-13
8.98332e-13
9.17775e-13
1.12009e-12
1.22729e-12
3.94081e-12
4.60139e-12
0.00188523
0.000533112
2.76347e-05
3.14578e-07
6.06108e-10
1.04428e-12
8.62202e-13
8.67777e-13
8.68996e-13
8.69225e-13
8.69291e-13
8.69685e-13
8.72127e-13
8.75001e-13
8.98313e-13
9.17752e-13
1.12003e-12
1.22723e-12
3.94045e-12
4.60103e-12
0.00175986
0.000495389
2.51799e-05
2.78546e-07
5.147e-10
1.00089e-12
8.6238e-13
8.67827e-13
8.69018e-13
8.69241e-13
8.69322e-13
8.69807e-13
8.72195e-13
8.75019e-13
8.97925e-13
9.17128e-13
1.11671e-12
1.22319e-12
3.90474e-12
4.55736e-12
0.0201982
0.00741834
0.000548116
7.80871e-06
1.81015e-08
3.70578e-11
3.04973e-11
3.07114e-11
3.07584e-11
3.07674e-11
3.07705e-11
3.0788e-11
3.08738e-11
3.09746e-11
3.17909e-11
3.24705e-11
3.95332e-11
4.3264e-11
1.37019e-10
1.59352e-10
0.0212428
0.00785954
0.000592551
8.67298e-06
2.08446e-08
3.86587e-11
3.04902e-11
3.07094e-11
3.07576e-11
3.07668e-11
3.07694e-11
3.07837e-11
3.08715e-11
3.09741e-11
3.18049e-11
3.24929e-11
3.96517e-11
4.34077e-11
1.3827e-10
1.60877e-10
0.0212428
0.00785729
0.00059187
8.65832e-06
2.07963e-08
3.86329e-11
3.04901e-11
3.07094e-11
3.07576e-11
3.07668e-11
3.07695e-11
3.0784e-11
3.08718e-11
3.09745e-11
3.18056e-11
3.24938e-11
3.9654e-11
4.34101e-11
1.38283e-10
1.6089e-10
0.0212514
0.00784432
0.000587629
8.56204e-06
2.04729e-08
3.84545e-11
3.04898e-11
3.07094e-11
3.07577e-11
3.07669e-11