/*--------------------------------*- C++ -*----------------------------------*\
  =========                 |
  \\      /  F ield         | OpenFOAM: The Open Source CFD Toolbox
   \\    /   O peration     | Website:  https://openfoam.org
    \\  /    A nd           | Version:  8
     \\/     M anipulation  |
\*---------------------------------------------------------------------------*/
FoamFile
{
    version     2.0;
    format      ascii;
    class       volScalarField;
    location    "2.3";
    object      p;
}
// * * * * * * * * * * * * * * * * * * * * * * * * * * * * * * * * * * * * * //

dimensions      [0 2 -2 0 0 0 0];

internalField   nonuniform List<scalar> 
180000
(
0.000923201
0.000860866
0.000900914
0.000766198
0.000838069
0.000908667
0.000846573
0.000886331
0.000752971
0.000823654
0.000907988
0.000845925
0.000885652
0.000752405
0.000823011
0.000903952
0.000842046
0.0008816
0.000748989
0.000819206
0.000903557
0.00084167
0.000881201
0.000748659
0.00081883
0.000901876
0.000840065
0.000879508
0.000747252
0.000817242
0.000901683
0.000839881
0.000879312
0.00074709
0.000817057
0.000900983
0.000839214
0.000878606
0.000746504
0.000816393
0.000900907
0.000839142
0.000878529
0.00074644
0.00081632
0.000900716
0.000838959
0.000878336
0.000746279
0.000816139
0.000900716
0.000838959
0.000878336
0.000746279
0.000816139
0.000900907
0.000839142
0.000878529
0.00074644
0.00081632
0.000900983
0.000839214
0.000878606
0.000746504
0.000816393
0.000901683
0.000839881
0.000879312
0.00074709
0.000817057
0.000901876
0.000840065
0.000879508
0.000747252
0.000817242
0.000903557
0.00084167
0.000881201
0.000748659
0.00081883
0.000903952
0.000842046
0.0008816
0.000748989
0.000819206
0.000907988
0.000845925
0.000885652
0.000752405
0.000823011
0.000908667
0.000846573
0.000886331
0.000752971
0.000823654
0.000923201
0.000860866
0.000900914
0.000766198
0.000838069
0.000744149
0.00071672
0.00073529
0.00066672
0.000706163
0.000738161
0.000709902
0.000728942
0.00065918
0.000698946
0.000737876
0.000709588
0.000728641
0.000658852
0.000698619
0.000736135
0.000707662
0.000726798
0.000656836
0.000696639
0.000735965
0.000707476
0.000726617
0.000656643
0.000696444
0.000735233
0.000706673
0.00072584
0.000655808
0.000695612
0.00073515
0.000706581
0.000725751
0.000655712
0.000695515
0.000734844
0.000706246
0.000725425
0.000655363
0.000695166
0.000734811
0.00070621
0.00072539
0.000655326
0.000695128
0.000734727
0.000706118
0.0007253
0.00065523
0.000695032
0.000734727
0.000706118
0.0007253
0.00065523
0.000695032
0.000734811
0.00070621
0.00072539
0.000655326
0.000695128
0.000734844
0.000706246
0.000725425
0.000655363
0.000695166
0.00073515
0.000706581
0.000725751
0.000655712
0.000695515
0.000735233
0.000706673
0.00072584
0.000655808
0.000695612
0.000735965
0.000707476
0.000726617
0.000656643
0.000696444
0.000736135
0.000707662
0.000726798
0.000656836
0.000696639
0.000737876
0.000709588
0.000728641
0.000658852
0.000698619
0.000738161
0.000709902
0.000728942
0.00065918
0.000698946
0.000744149
0.00071672
0.00073529
0.00066672
0.000706163
0.000535155
0.000512951
0.000528412
0.00047413
0.000507665
0.000530238
0.000507658
0.000523317
0.000468605
0.000502137
0.000530005
0.000507414
0.000523076
0.000468364
0.000501886
0.00052855
0.000505886
0.000521567
0.000466847
0.00050033
0.000528409
0.00050574
0.000521421
0.000466703
0.000500179
0.000527798
0.000505103
0.000520786
0.000466075
0.000499525
0.000527729
0.000505032
0.000520713
0.000466003
0.00049945
0.000527473
0.000504766
0.000520447
0.000465741
0.000499176
0.000527446
0.000504738
0.000520419
0.000465713
0.000499146
0.000527376
0.000504665
0.000520346
0.000465641
0.000499071
0.000527376
0.000504665
0.000520346
0.000465641
0.000499071
0.000527446
0.000504738
0.000520419
0.000465713
0.000499146
0.000527473
0.000504766
0.000520447
0.000465741
0.000499176
0.000527729
0.000505032
0.000520713
0.000466003
0.00049945
0.000527798
0.000505103
0.000520786
0.000466075
0.000499525
0.000528409
0.00050574
0.000521421
0.000466703
0.000500179
0.00052855
0.000505886
0.000521567
0.000466847
0.00050033
0.000530005
0.000507414
0.000523076
0.000468364
0.000501886
0.000530238
0.000507658
0.000523317
0.000468605
0.000502137
0.000535155
0.000512951
0.000528412
0.00047413
0.000507665
0.000502383
0.000475879
0.0004944
0.000432337
0.000472775
0.000496382
0.0004698
0.000488323
0.000426459
0.000466563
0.000496097
0.000469519
0.000488035
0.000426202
0.000466278
0.000494319
0.000467755
0.000486231
0.000424568
0.000464511
0.000494148
0.000467587
0.000486057
0.000424414
0.00046434
0.000493403
0.000466854
0.000485299
0.000423737
0.000463599
0.000493319
0.000466771
0.000485213
0.000423661
0.000463514
0.000493008
0.000466465
0.000484896
0.000423379
0.000463203
0.000492975
0.000466432
0.000484862
0.000423349
0.00046317
0.00049289
0.000466349
0.000484775
0.000423271
0.000463085
0.00049289
0.000466349
0.000484775
0.000423271
0.000463085
0.000492975
0.000466432
0.000484862
0.000423349
0.00046317
0.000493008
0.000466465
0.000484896
0.000423379
0.000463203
0.000493319
0.000466771
0.000485213
0.000423661
0.000463514
0.000493403
0.000466854
0.000485299
0.000423737
0.000463599
0.000494148
0.000467587
0.000486057
0.000424414
0.00046434
0.000494319
0.000467755
0.000486231
0.000424568
0.000464511
0.000496097
0.000469519
0.000488035
0.000426202
0.000466278
0.000496382
0.0004698
0.000488323
0.000426459
0.000466563
0.000502383
0.000475879
0.0004944
0.000432337
0.000472775
0.000525957
0.000497949
0.000517872
0.00045157
0.000497706
0.000519641
0.000491543
0.000511474
0.000445382
0.000491185
0.000519337
0.000491244
0.000511167
0.000445109
0.000490882
0.000517436
0.000489356
0.000509238
0.000443361
0.000488991
0.000517254
0.000489177
0.000509052
0.000443197
0.000488808
0.000516457
0.000488392
0.000508241
0.000442473
0.000488014
0.000516367
0.000488303
0.000508149
0.000442391
0.000487923
0.000516034
0.000487976
0.00050781
0.000442089
0.00048759
0.000515999
0.000487941
0.000507773
0.000442057
0.000487555
0.000515908
0.000487851
0.00050768
0.000441974
0.000487463
0.000515908
0.000487851
0.00050768
0.000441974
0.000487463
0.000515999
0.000487941
0.000507773
0.000442057
0.000487555
0.000516034
0.000487976
0.00050781
0.000442089
0.00048759
0.000516367
0.000488303
0.000508149
0.000442391
0.000487923
0.000516457
0.000488392
0.000508241
0.000442473
0.000488014
0.000517254
0.000489177
0.000509052
0.000443197
0.000488808
0.000517436
0.000489356
0.000509238
0.000443361
0.000488991
0.000519337
0.000491244
0.000511167
0.000445109
0.000490882
0.000519641
0.000491543
0.000511474
0.000445382
0.000491185
0.000525957
0.000497949
0.000517872
0.00045157
0.000497706
0.000538525
0.000511176
0.000531126
0.000465074
0.000514783
0.000532411
0.000504926
0.000524916
0.000458973
0.000508424
0.000532114
0.000504632
0.000524615
0.000458701
0.000508125
0.000530234
0.000502751
0.000522703
0.000456942
0.000506233
0.000530055
0.000502574
0.00052252
0.000456777
0.00050605
0.000529266
0.00050179
0.000521715
0.000456047
0.000505255
0.000529177
0.000501702
0.000521623
0.000455965
0.000505165
0.000528847
0.000501375
0.000521286
0.00045566
0.000504831
0.000528812
0.000501341
0.00052125
0.000455628
0.000504795
0.000528722
0.000501251
0.000521158
0.000455544
0.000504704
0.000528722
0.000501251
0.000521158
0.000455544
0.000504704
0.000528812
0.000501341
0.00052125
0.000455628
0.000504795
0.000528847
0.000501375
0.000521286
0.00045566
0.000504831
0.000529177
0.000501702
0.000521623
0.000455965
0.000505165
0.000529266
0.00050179
0.000521715
0.000456047
0.000505255
0.000530055
0.000502574
0.00052252
0.000456777
0.00050605
0.000530234
0.000502751
0.000522703
0.000456942
0.000506233
0.000532114
0.000504632
0.000524615
0.000458701
0.000508125
0.000532411
0.000504926
0.000524916
0.000458973
0.000508424
0.000538525
0.000511176
0.000531126
0.000465074
0.000514783
0.000538191
0.000511622
0.000531496
0.000466413
0.0005194
0.000532294
0.000505582
0.000525505
0.000460496
0.000513265
0.000532005
0.000505295
0.000525211
0.000460229
0.000512972
0.000530154
0.000503441
0.000523329
0.000458487
0.000511099
0.000529978
0.000503266
0.000523149
0.000458324
0.00051092
0.000529201
0.000502492
0.000522355
0.0004576
0.000510132
0.000529114
0.000502406
0.000522265
0.000457519
0.000510042
0.000528788
0.000502082
0.000521932
0.000457216
0.000509711
0.000528754
0.000502048
0.000521897
0.000457185
0.000509676
0.000528665
0.00050196
0.000521805
0.000457101
0.000509585
0.000528665
0.00050196
0.000521805
0.000457101
0.000509585
0.000528754
0.000502048
0.000521897
0.000457185
0.000509676
0.000528788
0.000502082
0.000521932
0.000457216
0.000509711
0.000529114
0.000502406
0.000522265
0.000457519
0.000510042
0.000529201
0.000502492
0.000522355
0.0004576
0.000510132
0.000529978
0.000503266
0.000523149
0.000458324
0.00051092
0.000530154
0.000503441
0.000523329
0.000458487
0.000511099
0.000532005
0.000505295
0.000525211
0.000460229
0.000512972
0.000532294
0.000505582
0.000525505
0.000460496
0.000513265
0.000538191
0.000511622
0.000531496
0.000466413
0.0005194
0.000535436
0.000509279
0.000529295
0.00046465
0.000521003
0.000529663
0.000503375
0.000523435
0.000458874
0.000515018
0.000529378
0.000503092
0.000523146
0.000458611
0.000514729
0.000527533
0.000501245
0.000521271
0.000456876
0.000512859
0.000527359
0.000501073
0.000521092
0.000456715
0.00051268
0.000526582
0.0005003
0.0005203
0.000455992
0.000511892
0.000526495
0.000500215
0.000520211
0.000455912
0.000511803
0.00052617
0.000499892
0.000519878
0.00045561
0.000511472
0.000526136
0.000499858
0.000519843
0.000455578
0.000511437
0.000526047
0.00049977
0.000519752
0.000455495
0.000511346
0.000526047
0.00049977
0.000519752
0.000455495
0.000511346
0.000526136
0.000499858
0.000519843
0.000455578
0.000511437
0.00052617
0.000499892
0.000519878
0.00045561
0.000511472
0.000526495
0.000500215
0.000520211
0.000455912
0.000511803
0.000526582
0.0005003
0.0005203
0.000455992
0.000511892
0.000527359
0.000501073
0.000521092
0.000456715
0.00051268
0.000527533
0.000501245
0.000521271
0.000456876
0.000512859
0.000529378
0.000503092
0.000523146
0.000458611
0.000514729
0.000529663
0.000503375
0.000523435
0.000458874
0.000515018
0.000535436
0.000509279
0.000529295
0.00046465
0.000521003
0.000534118
0.000508224
0.000528467
0.000464023
0.000523383
0.000528435
0.000502422
0.000522704
0.000458354
0.000517508
0.000528152
0.000502142
0.000522418
0.000458093
0.00051722
0.000526304
0.000500294
0.00052054
0.000456357
0.000515345
0.00052613
0.000500122
0.000520363
0.000456197
0.000515166
0.000525351
0.000499348
0.000519568
0.000455473
0.000514375
0.000525265
0.000499263
0.000519479
0.000455393
0.000514286
0.000524938
0.000498939
0.000519146
0.00045509
0.000513953
0.000524904
0.000498906
0.000519111
0.000455059
0.000513918
0.000524815
0.000498817
0.000519019
0.000454975
0.000513827
0.000524815
0.000498817
0.000519019
0.000454975
0.000513827
0.000524904
0.000498906
0.000519111
0.000455059
0.000513918
0.000524938
0.000498939
0.000519146
0.00045509
0.000513953
0.000525265
0.000499263
0.000519479
0.000455393
0.000514286
0.000525351
0.000499348
0.000519568
0.000455473
0.000514375
0.00052613
0.000500122
0.000520363
0.000456197
0.000515166
0.000526304
0.000500294
0.00052054
0.000456357
0.000515345
0.000528152
0.000502142
0.000522418
0.000458093
0.00051722
0.000528435
0.000502422
0.000522704
0.000458354
0.000517508
0.000534118
0.000508224
0.000528467
0.000464023
0.000523383
0.000533729
0.000508109
0.000528561
0.000464397
0.000526046
0.00052814
0.000502408
0.000522898
0.000458827
0.000520267
0.00052786
0.000502131
0.000522614
0.000458569
0.000519981
0.000526011
0.000500283
0.000520737
0.000456832
0.000518101
0.000525837
0.000500111
0.00052056
0.000456672
0.000517923
0.000525057
0.000499336
0.000519764
0.000455947
0.000517128
0.00052497
0.000499251
0.000519675
0.000455867
0.000517039
0.000524643
0.000498927
0.000519341
0.000455563
0.000516705
0.000524609
0.000498893
0.000519306
0.000455531
0.00051667
0.000524519
0.000498804
0.000519214
0.000455448
0.000516578
0.000524519
0.000498804
0.000519214
0.000455448
0.000516578
0.000524609
0.000498893
0.000519306
0.000455531
0.00051667
0.000524643
0.000498927
0.000519341
0.000455563
0.000516705
0.00052497
0.000499251
0.000519675
0.000455867
0.000517039
0.000525057
0.000499336
0.000519764
0.000455947
0.000517128
0.000525837
0.000500111
0.00052056
0.000456672
0.000517923
0.000526011
0.000500283
0.000520737
0.000456832
0.000518101
0.00052786
0.000502131
0.000522614
0.000458569
0.000519981
0.00052814
0.000502408
0.000522898
0.000458827
0.000520267
0.000533729
0.000508109
0.000528561
0.000464397
0.000526046
0.000533423
0.000508098
0.000528732
0.000464966
0.000527848
0.000527934
0.000502503
0.000523175
0.000459498
0.000522153
0.000527657
0.000502228
0.000522894
0.000459243
0.000521869
0.00052581
0.000500383
0.000521018
0.000457506
0.000519984
0.000525637
0.000500212
0.000520842
0.000457346
0.000519806
0.000524855
0.000499437
0.000520045
0.000456619
0.000519008
0.000524769
0.000499352
0.000519957
0.000456539
0.000518919
0.000524442
0.000499027
0.000519623
0.000456235
0.000518583
0.000524408
0.000498994
0.000519588
0.000456203
0.000518548
0.000524318
0.000498904
0.000519496
0.00045612
0.000518455
0.000524318
0.000498904
0.000519496
0.00045612
0.000518455
0.000524408
0.000498994
0.000519588
0.000456203
0.000518548
0.000524442
0.000499027
0.000519622
0.000456235
0.000518583
0.000524769
0.000499352
0.000519957
0.000456539
0.000518919
0.000524855
0.000499437
0.000520045
0.000456619
0.000519008
0.000525637
0.000500212
0.000520842
0.000457346
0.000519806
0.00052581
0.000500383
0.000521018
0.000457506
0.000519984
0.000527657
0.000502228
0.000522894
0.000459243
0.000521869
0.000527934
0.000502503
0.000523175
0.000459498
0.000522153
0.000533423
0.000508098
0.000528732
0.000464966
0.000527848
0.000533001
0.000507967
0.000528771
0.00046543
0.000526545
0.000527611
0.000502476
0.000523317
0.000460063
0.000520947
0.000527337
0.000502205
0.00052304
0.000459809
0.000520666
0.000525492
0.000500362
0.000521167
0.000458073
0.000518784
0.00052532
0.000500192
0.000520992
0.000457914
0.000518607
0.000524538
0.000499417
0.000520195
0.000457186
0.000517809
0.000524452
0.000499332
0.000520107
0.000457107
0.00051772
0.000524124
0.000499007
0.000519772
0.000456802
0.000517384
0.00052409
0.000498974
0.000519737
0.00045677
0.000517349
0.000524
0.000498885
0.000519645
0.000456686
0.000517256
0.000524
0.000498885
0.000519645
0.000456686
0.000517256
0.00052409
0.000498974
0.000519737
0.00045677
0.000517349
0.000524124
0.000499007
0.000519772
0.000456802
0.000517384
0.000524452
0.000499332
0.000520107
0.000457107
0.00051772
0.000524538
0.000499417
0.000520195
0.000457186
0.000517809
0.00052532
0.000500192
0.000520992
0.000457914
0.000518607
0.000525492
0.000500362
0.000521167
0.000458073
0.000518784
0.000527337
0.000502205
0.00052304
0.000459809
0.000520666
0.000527611
0.000502476
0.000523317
0.000460063
0.000520947
0.000533001
0.000507967
0.000528771
0.00046543
0.000526545
0.000532542
0.000507785
0.000528753
0.000465762
0.000524358
0.000527248
0.000502396
0.0005234
0.000460494
0.000518861
0.000526976
0.000502127
0.000523125
0.000460243
0.000518584
0.000525134
0.000500288
0.000521256
0.000458508
0.000516708
0.000524963
0.000500119
0.000521081
0.00045835
0.000516532
0.00052418
0.000499343
0.000520284
0.000457621
0.000515734
0.000524095
0.000499259
0.000520197
0.000457542
0.000515646
0.000523766
0.000498934
0.000519861
0.000457236
0.00051531
0.000523732
0.000498901
0.000519826
0.000457205
0.000515275
0.000523642
0.000498811
0.000519734
0.000457121
0.000515182
0.000523642
0.000498811
0.000519734
0.000457121
0.000515182
0.000523732
0.000498901
0.000519826
0.000457205
0.000515275
0.000523766
0.000498934
0.000519861
0.000457236
0.00051531
0.000524095
0.000499259
0.000520197
0.000457542
0.000515646
0.00052418
0.000499343
0.000520284
0.000457621
0.000515734
0.000524963
0.000500119
0.000521081
0.00045835
0.000516532
0.000525134
0.000500288
0.000521256
0.000458508
0.000516708
0.000526976
0.000502127
0.000523125
0.000460243
0.000518584
0.000527248
0.000502396
0.0005234
0.000460494
0.000518861
0.000532542
0.000507785
0.000528753
0.000465762
0.000524358
0.000532106
0.000507615
0.000528741
0.00046601
0.000522435
0.000526906
0.000502325
0.000523487
0.000460839
0.000517037
0.000526636
0.000502059
0.000523215
0.000460591
0.000516762
0.000524797
0.000500223
0.000521348
0.000458858
0.000514892
0.000524627
0.000500055
0.000521175
0.000458701
0.000514718
0.000523844
0.000499279
0.000520377
0.000457971
0.00051392
0.000523759
0.000499196
0.00052029
0.000457892
0.000513832
0.00052343
0.00049887
0.000519954
0.000457586
0.000513496
0.000523396
0.000498837
0.00051992
0.000457555
0.000513461
0.000523305
0.000498747
0.000519828
0.00045747
0.000513369
0.000523305
0.000498747
0.000519828
0.00045747
0.000513369
0.000523396
0.000498837
0.00051992
0.000457555
0.000513461
0.00052343
0.00049887
0.000519954
0.000457586
0.000513496
0.000523759
0.000499196
0.00052029
0.000457892
0.000513832
0.000523844
0.000499279
0.000520377
0.000457971
0.00051392
0.000524627
0.000500055
0.000521175
0.000458701
0.000514718
0.000524797
0.000500223
0.000521348
0.000458858
0.000514892
0.000526636
0.000502059
0.000523215
0.000460591
0.000516762
0.000526906
0.000502325
0.000523487
0.000460839
0.000517037
0.000532106
0.000507615
0.000528741
0.00046601
0.000522435
0.000531702
0.000507467
0.000528747
0.000466196
0.000520778
0.000526593
0.000502274
0.000523588
0.000461121
0.000515474
0.000526326
0.00050201
0.000523318
0.000460875
0.000515203
0.000524489
0.000500178
0.000521456
0.000459145
0.000513338
0.00052432
0.000500012
0.000521283
0.000458989
0.000513165
0.000523537
0.000499235
0.000520486
0.000458258
0.000512368
0.000523452
0.000499152
0.000520399
0.00045818
0.000512281
0.000523122
0.000498826
0.000520063
0.000457873
0.000511944
0.000523089
0.000498793
0.000520028
0.000457842
0.00051191
0.000522998
0.000498703
0.000519936
0.000457757
0.000511817
0.000522998
0.000498703
0.000519936
0.000457757
0.000511817
0.000523089
0.000498793
0.000520028
0.000457842
0.00051191
0.000523122
0.000498826
0.000520063
0.000457873
0.000511944
0.000523452
0.000499152
0.000520399
0.00045818
0.000512281
0.000523537
0.000499235
0.000520486
0.000458258
0.000512368
0.00052432
0.000500012
0.000521283
0.000458989
0.000513165
0.000524489
0.000500178
0.000521456
0.000459145
0.000513338
0.000526326
0.00050201
0.000523318
0.000460875
0.000515203
0.000526593
0.000502274
0.000523588
0.000461121
0.000515474
0.000531702
0.000507467
0.000528747
0.000466196
0.000520778
0.00053132
0.000507333
0.000528761
0.000466321
0.000519185
0.0005263
0.000502234
0.000523696
0.00046134
0.000513973
0.000526036
0.000501974
0.00052343
0.000461097
0.000513705
0.000524202
0.000500145
0.000521571
0.00045937
0.000511847
0.000524034
0.00049998
0.0005214
0.000459214
0.000511674
0.00052325
0.000499203
0.000520602
0.000458483
0.000510878
0.000523166
0.00049912
0.000520515
0.000458405
0.000510791
0.000522836
0.000498794
0.000520179
0.000458098
0.000510455
0.000522803
0.000498761
0.000520145
0.000458067
0.00051042
0.000522712
0.000498671
0.000520052
0.000457982
0.000510327
0.000522712
0.000498671
0.000520052
0.000457982
0.000510327
0.000522803
0.000498761
0.000520145
0.000458067
0.00051042
0.000522836
0.000498794
0.000520179
0.000458098
0.000510455
0.000523166
0.00049912
0.000520515
0.000458405
0.000510791
0.00052325
0.000499203
0.000520602
0.000458483
0.000510878
0.000524034
0.00049998
0.0005214
0.000459214
0.000511674
0.000524202
0.000500145
0.000521571
0.00045937
0.000511847
0.000526036
0.000501974
0.00052343
0.000461097
0.000513705
0.0005263
0.000502234
0.000523696
0.00046134
0.000513973
0.00053132
0.000507333
0.000528761
0.000466321
0.000519185
0.000530955
0.000507209
0.000528782
0.000466381
0.000517586
0.000526022
0.000502202
0.000523809
0.000461493
0.000512464
0.000525761
0.000501944
0.000523545
0.000461252
0.000512199
0.000523931
0.00050012
0.000521691
0.000459529
0.000510347
0.000523764
0.000499955
0.000521521
0.000459374
0.000510175
0.00052298
0.000499179
0.000520723
0.000458643
0.000509379
0.000522896
0.000499096
0.000520637
0.000458566
0.000509293
0.000522566
0.00049877
0.0005203
0.000458258
0.000508957
0.000522533
0.000498737
0.000520266
0.000458227
0.000508922
0.000522442
0.000498647
0.000520173
0.000458142
0.00050883
0.000522442
0.000498647
0.000520173
0.000458142
0.00050883
0.000522533
0.000498737
0.000520266
0.000458227
0.000508922
0.000522566
0.00049877
0.0005203
0.000458258
0.000508957
0.000522896
0.000499096
0.000520637
0.000458566
0.000509293
0.00052298
0.000499179
0.000520723
0.000458643
0.000509379
0.000523764
0.000499955
0.000521521
0.000459374
0.000510175
0.000523931
0.00050012
0.000521691
0.000459529
0.000510347
0.000525761
0.000501944
0.000523545
0.000461252
0.000512199
0.000526022
0.000502202
0.000523809
0.000461493
0.000512464
0.000530955
0.000507209
0.000528782
0.000466381
0.000517586
0.000530607
0.000507094
0.000528811
0.000466378
0.000515993
0.00052576
0.000502177
0.000523928
0.000461581
0.000510958
0.000525501
0.000501922
0.000523667
0.000461342
0.000510696
0.000523676
0.000500102
0.000521817
0.000459623
0.00050885
0.00052351
0.000499939
0.000521648
0.00045947
0.00050868
0.000522725
0.000499162
0.00052085
0.000458739
0.000507885
0.000522642
0.00049908
0.000520764
0.000458661
0.000507799
0.000522311
0.000498753
0.000520427
0.000458353
0.000507462
0.000522278
0.000498721
0.000520393
0.000458323
0.000507428
0.000522187
0.000498631
0.0005203
0.000458238
0.000507336
0.000522187
0.000498631
0.0005203
0.000458238
0.000507336
0.000522278
0.000498721
0.000520393
0.000458323
0.000507428
0.000522311
0.000498753
0.000520427
0.000458353
0.000507462
0.000522642
0.00049908
0.000520764
0.000458661
0.000507799
0.000522725
0.000499162
0.00052085
0.000458739
0.000507885
0.00052351
0.000499939
0.000521648
0.00045947
0.00050868
0.000523676
0.000500102
0.000521817
0.000459623
0.00050885
0.000525501
0.000501922
0.000523667
0.000461342
0.000510696
0.00052576
0.000502177
0.000523928
0.000461581
0.000510958
0.000530607
0.000507094
0.000528811
0.000466378
0.000515993
0.000530277
0.000506989
0.00052885
0.000466311
0.000514418
0.000525514
0.00050216
0.000524054
0.000461604
0.000509469
0.000525257
0.000501907
0.000523796
0.000461368
0.000509209
0.000523436
0.000500093
0.000521951
0.000459654
0.000507371
0.000523271
0.00049993
0.000521783
0.000459501
0.000507202
0.000522486
0.000499154
0.000520984
0.00045877
0.000506407
0.000522403
0.000499072
0.000520899
0.000458693
0.000506322
0.000522072
0.000498745
0.000520562
0.000458385
0.000505985
0.000522039
0.000498713
0.000520528
0.000458355
0.000505951
0.000521948
0.000498623
0.000520435
0.00045827
0.000505859
0.000521948
0.000498623
0.000520435
0.00045827
0.000505859
0.000522039
0.000498713
0.000520528
0.000458355
0.000505951
0.000522072
0.000498745
0.000520562
0.000458385
0.000505985
0.000522403
0.000499072
0.000520899
0.000458693
0.000506322
0.000522486
0.000499154
0.000520984
0.00045877
0.000506407
0.000523271
0.00049993
0.000521783
0.000459501
0.000507202
0.000523436
0.000500093
0.000521951
0.000459654
0.000507371
0.000525257
0.000501907
0.000523796
0.000461368
0.000509209
0.000525514
0.00050216
0.000524054
0.000461604
0.000509469
0.000530277
0.000506989
0.00052885
0.000466311
0.000514418
0.000529964
0.000506894
0.000528899
0.000466183
0.000512795
0.000525283
0.000502152
0.00052419
0.000461563
0.00050793
0.000525028
0.000501901
0.000523933
0.00046133
0.000507673
0.000523212
0.000500092
0.000522094
0.000459621
0.000505842
0.000523048
0.00049993
0.000521927
0.000459469
0.000505674
0.000522263
0.000499154
0.000521129
0.000458739
0.000504881
0.000522181
0.000499073
0.000521044
0.000458662
0.000504796
0.000521849
0.000498745
0.000520706
0.000458354
0.000504459
0.000521817
0.000498713
0.000520673
0.000458324
0.000504426
0.000521725
0.000498623
0.000520579
0.000458239
0.000504333
0.000521725
0.000498623
0.000520579
0.000458239
0.000504333
0.000521817
0.000498713
0.000520673
0.000458324
0.000504426
0.000521849
0.000498745
0.000520706
0.000458354
0.000504459
0.000522181
0.000499073
0.000521044
0.000458662
0.000504796
0.000522263
0.000499154
0.000521129
0.000458739
0.000504881
0.000523048
0.00049993
0.000521927
0.000459469
0.000505674
0.000523212
0.000500092
0.000522094
0.000459621
0.000505842
0.000525028
0.000501901
0.000523934
0.00046133
0.000507673
0.000525283
0.000502152
0.00052419
0.000461563
0.00050793
0.000529964
0.000506894
0.000528899
0.000466183
0.000512795
-1.66889e-05
1.61583e-05
3.05956e-06
7.44316e-07
2.64006e-07
1.83365e-07
1.66041e-07
1.62669e-07
1.61858e-07
1.61675e-07
1.61619e-07
1.61594e-07
1.61496e-07
1.61386e-07
1.60519e-07
1.59851e-07
1.53415e-07
1.50645e-07
1.11916e-07
1.07812e-07
-1.67755e-05
1.61263e-05
3.08132e-06
7.51234e-07
2.65726e-07
1.83783e-07
1.66125e-07
1.62677e-07
1.61843e-07
1.61656e-07
1.61598e-07
1.61572e-07
1.61472e-07
1.6136e-07
1.60478e-07
1.59803e-07
1.53295e-07
1.50518e-07
1.11616e-07
1.076e-07
-1.67713e-05
1.61183e-05
3.07904e-06
7.50965e-07
2.65685e-07
1.83781e-07
1.66125e-07
1.62677e-07
1.61843e-07
1.61656e-07
1.61597e-07
1.61572e-07
1.61471e-07
1.61359e-07
1.60478e-07
1.59802e-07
1.53293e-07
1.50516e-07
1.11613e-07
1.07598e-07
-1.67491e-05
1.60712e-05
3.06528e-06
7.49218e-07
2.65404e-07
1.83755e-07
1.66122e-07
1.62677e-07
1.61843e-07
1.61655e-07
1.61596e-07
1.61571e-07
1.6147e-07
1.61357e-07
1.60475e-07
1.59799e-07
1.53286e-07
1.50509e-07
1.11601e-07
1.07592e-07
-1.6746e-05
1.60658e-05
3.06346e-06
7.48935e-07
2.65345e-07
1.83746e-07
1.6612e-07
1.62676e-07
1.61843e-07
1.61654e-07
1.61596e-07
1.61571e-07
1.6147e-07
1.61357e-07
1.60475e-07
1.59799e-07
1.53286e-07
1.50509e-07
1.11601e-07
1.07591e-07
-1.67344e-05
1.60452e-05
3.05672e-06
7.4794e-07
2.65146e-07
1.83715e-07
1.66113e-07
1.62675e-07
1.61842e-07
1.61654e-07
1.61596e-07
1.61571e-07
1.6147e-07
1.61357e-07
1.60474e-07
1.59798e-07
1.53286e-07
1.50509e-07
1.11601e-07
1.07591e-07
-1.67329e-05
1.60425e-05
3.05585e-06
7.478e-07
2.65116e-07
1.8371e-07
1.66112e-07
1.62675e-07
1.61842e-07
1.61654e-07
1.61596e-07
1.61571e-07
1.6147e-07
1.61357e-07
1.60474e-07
1.59798e-07
1.53286e-07
1.50509e-07
1.11601e-07
1.07591e-07
-1.67282e-05
1.60341e-05
3.05314e-06
7.47399e-07
2.65035e-07
1.83697e-07
1.6611e-07
1.62674e-07
1.61842e-07
1.61654e-07
1.61596e-07
1.61571e-07
1.6147e-07
1.61357e-07
1.60474e-07
1.59798e-07
1.53286e-07
1.50509e-07
1.11601e-07
1.07591e-07
-1.67277e-05
1.60331e-05
3.05281e-06
7.47347e-07
2.65024e-07
1.83695e-07
1.66109e-07
1.62674e-07
1.61842e-07
1.61654e-07
1.61596e-07
1.61571e-07
1.6147e-07
1.61357e-07
1.60474e-07
1.59798e-07
1.53286e-07
1.50509e-07
1.11601e-07
1.07591e-07
-1.67264e-05
1.60308e-05
3.05209e-06
7.47242e-07
2.65002e-07
1.83692e-07
1.66108e-07
1.62674e-07
1.61842e-07
1.61654e-07
1.61596e-07
1.61571e-07
1.6147e-07
1.61357e-07
1.60474e-07
1.59798e-07
1.53286e-07
1.50509e-07
1.11601e-07
1.07591e-07
-1.67264e-05
1.60308e-05
3.05209e-06
7.47242e-07
2.65002e-07
1.83692e-07
1.66108e-07
1.62674e-07
1.61842e-07
1.61654e-07
1.61596e-07
1.61571e-07
1.6147e-07
1.61357e-07
1.60474e-07
1.59798e-07
1.53286e-07
1.50509e-07
1.11601e-07
1.07591e-07
-1.67277e-05
1.60331e-05
3.05281e-06
7.47347e-07
2.65024e-07
1.83695e-07
1.66109e-07
1.62674e-07
1.61842e-07
1.61654e-07
1.61596e-07
1.61571e-07
1.6147e-07
1.61357e-07
1.60474e-07
1.59798e-07
1.53286e-07
1.50509e-07
1.11601e-07
1.07591e-07
-1.67282e-05
1.60341e-05
3.05314e-06
7.47399e-07
2.65035e-07
1.83697e-07
1.6611e-07
1.62674e-07
1.61842e-07
1.61654e-07
1.61596e-07
1.61571e-07
1.6147e-07
1.61357e-07
1.60474e-07
1.59798e-07
1.53286e-07
1.50509e-07
1.11601e-07
1.07591e-07
-1.67329e-05
1.60425e-05
3.05585e-06
7.478e-07
2.65116e-07
1.8371e-07
1.66112e-07
1.62675e-07
1.61842e-07
1.61654e-07
1.61596e-07
1.61571e-07
1.6147e-07
1.61357e-07
1.60474e-07
1.59798e-07
1.53286e-07
1.50509e-07
1.11601e-07
1.07591e-07
-1.67344e-05
1.60452e-05
3.05672e-06
7.4794e-07
2.65146e-07
1.83715e-07
1.66113e-07
1.62675e-07
1.61842e-07
1.61654e-07
1.61596e-07
1.61571e-07
1.6147e-07
1.61357e-07
1.60474e-07
1.59798e-07
1.53286e-07
1.50509e-07
1.11601e-07
1.07591e-07
-1.6746e-05
1.60658e-05
3.06346e-06
7.48935e-07
2.65345e-07
1.83746e-07
1.6612e-07
1.62676e-07
1.61843e-07
1.61654e-07
1.61596e-07
1.61571e-07
1.6147e-07
1.61357e-07
1.60475e-07
1.59799e-07
1.53286e-07
1.50509e-07
1.11601e-07
1.07591e-07
-1.67491e-05
1.60712e-05
3.06528e-06
7.49218e-07
2.65404e-07
1.83755e-07
1.66122e-07
1.62677e-07
1.61843e-07
1.61655e-07
1.61596e-07
1.61571e-07
1.6147e-07
1.61357e-07
1.60475e-07
1.59799e-07
1.53286e-07
1.50509e-07
1.11601e-07
1.07592e-07
-1.67713e-05
1.61183e-05
3.07904e-06
7.50965e-07
2.65685e-07
1.83781e-07
1.66125e-07
1.62677e-07
1.61843e-07
1.61656e-07
1.61597e-07
1.61572e-07
1.61471e-07
1.61359e-07
1.60478e-07
1.59802e-07
1.53293e-07
1.50516e-07
1.11613e-07
1.07598e-07
-1.67755e-05
1.61263e-05
3.08132e-06
7.51234e-07
2.65726e-07
1.83783e-07
1.66125e-07
1.62677e-07
1.61843e-07
1.61656e-07
1.61598e-07
1.61572e-07
1.61472e-07
1.6136e-07
1.60478e-07
1.59803e-07
1.53295e-07
1.50518e-07
1.11616e-07
1.076e-07
-1.66889e-05
1.61583e-05
3.05956e-06
7.44316e-07
2.64006e-07
1.83365e-07
1.66041e-07
1.62669e-07
1.61858e-07
1.61675e-07
1.61619e-07
1.61594e-07
1.61496e-07
1.61386e-07
1.60519e-07
1.59851e-07
1.53415e-07
1.50645e-07
1.11916e-07
1.07812e-07
-1.631e-05
1.63332e-05
3.08739e-06
7.50213e-07
2.65099e-07
1.83609e-07
1.66081e-07
1.62753e-07
1.61949e-07
1.61764e-07
1.61707e-07
1.61682e-07
1.61582e-07
1.6147e-07
1.60564e-07
1.59834e-07
1.53333e-07
1.50537e-07
1.11321e-07
1.07188e-07
-1.63912e-05
1.63011e-05
3.10939e-06
7.57207e-07
2.66839e-07
1.8403e-07
1.66168e-07
1.62757e-07
1.61935e-07
1.61745e-07
1.61686e-07
1.6166e-07
1.61558e-07
1.61444e-07
1.60522e-07
1.59784e-07
1.53212e-07
1.50409e-07
1.11017e-07
1.06972e-07
-1.63868e-05
1.62931e-05
3.10709e-06
7.56935e-07
2.66798e-07
1.84029e-07
1.66168e-07
1.62758e-07
1.61935e-07
1.61745e-07
1.61686e-07
1.6166e-07
1.61558e-07
1.61444e-07
1.60521e-07
1.59783e-07
1.5321e-07
1.50408e-07
1.11014e-07
1.0697e-07
-1.63636e-05
1.62455e-05
3.0932e-06
7.55172e-07
2.66513e-07