/*--------------------------------*- C++ -*----------------------------------*\
  =========                 |
  \\      /  F ield         | OpenFOAM: The Open Source CFD Toolbox
   \\    /   O peration     | Website:  https://openfoam.org
    \\  /    A nd           | Version:  8
     \\/     M anipulation  |
\*---------------------------------------------------------------------------*/
FoamFile
{
    version     2.0;
    format      ascii;
    class       volScalarField;
    location    "2.3";
    object      S1;
}
// * * * * * * * * * * * * * * * * * * * * * * * * * * * * * * * * * * * * * //

dimensions      [0 1 -1 0 0 0 0];

internalField   nonuniform List<scalar> 
180000
(
-4.12706e-28
-1.44535e-23
-4.31808e-19
-1.01617e-14
-1.57059e-10
-4.45363e-28
-1.54032e-23
-4.51873e-19
-1.02936e-14
-1.4502e-10
-4.46372e-28
-1.54335e-23
-4.52586e-19
-1.03036e-14
-1.44948e-10
-4.49762e-28
-1.5536e-23
-4.55003e-19
-1.03375e-14
-1.44672e-10
-4.49901e-28
-1.55404e-23
-4.55121e-19
-1.03402e-14
-1.4473e-10
-4.50251e-28
-1.5552e-23
-4.55446e-19
-1.03482e-14
-1.44922e-10
-4.50277e-28
-1.55529e-23
-4.55477e-19
-1.03493e-14
-1.44956e-10
-4.50344e-28
-1.55554e-23
-4.55559e-19
-1.03519e-14
-1.4504e-10
-4.5035e-28
-1.55556e-23
-4.55569e-19
-1.03522e-14
-1.45053e-10
-4.50363e-28
-1.55562e-23
-4.55588e-19
-1.03529e-14
-1.45074e-10
-4.50363e-28
-1.55562e-23
-4.55588e-19
-1.03529e-14
-1.45074e-10
-4.5035e-28
-1.55556e-23
-4.55569e-19
-1.03522e-14
-1.45053e-10
-4.50344e-28
-1.55554e-23
-4.55559e-19
-1.03519e-14
-1.4504e-10
-4.50277e-28
-1.55529e-23
-4.55477e-19
-1.03493e-14
-1.44956e-10
-4.50251e-28
-1.5552e-23
-4.55446e-19
-1.03482e-14
-1.44922e-10
-4.49901e-28
-1.55404e-23
-4.55121e-19
-1.03402e-14
-1.4473e-10
-4.49762e-28
-1.5536e-23
-4.55003e-19
-1.03375e-14
-1.44672e-10
-4.46372e-28
-1.54335e-23
-4.52586e-19
-1.03036e-14
-1.44948e-10
-4.45363e-28
-1.54032e-23
-4.51873e-19
-1.02936e-14
-1.4502e-10
-4.12706e-28
-1.44535e-23
-4.31808e-19
-1.01617e-14
-1.57059e-10
-4.12696e-28
-1.44529e-23
-4.31745e-19
-1.01148e-14
-7.63701e-11
-4.45352e-28
-1.54026e-23
-4.51804e-19
-1.02381e-14
-4.88133e-11
-4.46362e-28
-1.54329e-23
-4.52517e-19
-1.02481e-14
-4.85655e-11
-4.49752e-28
-1.55354e-23
-4.54935e-19
-1.02818e-14
-4.77675e-11
-4.4989e-28
-1.55398e-23
-4.55053e-19
-1.02845e-14
-4.78917e-11
-4.50241e-28
-1.55514e-23
-4.55378e-19
-1.02927e-14
-4.83381e-11
-4.50267e-28
-1.55523e-23
-4.55409e-19
-1.02937e-14
-4.8413e-11
-4.50333e-28
-1.55548e-23
-4.55492e-19
-1.02964e-14
-4.86171e-11
-4.50339e-28
-1.5555e-23
-4.55501e-19
-1.02968e-14
-4.86458e-11
-4.50352e-28
-1.55556e-23
-4.5552e-19
-1.02975e-14
-4.86987e-11
-4.50352e-28
-1.55556e-23
-4.5552e-19
-1.02975e-14
-4.86987e-11
-4.50339e-28
-1.5555e-23
-4.55501e-19
-1.02968e-14
-4.86458e-11
-4.50333e-28
-1.55548e-23
-4.55492e-19
-1.02964e-14
-4.86171e-11
-4.50267e-28
-1.55523e-23
-4.55409e-19
-1.02937e-14
-4.8413e-11
-4.50241e-28
-1.55514e-23
-4.55378e-19
-1.02927e-14
-4.83381e-11
-4.4989e-28
-1.55398e-23
-4.55053e-19
-1.02845e-14
-4.78916e-11
-4.49752e-28
-1.55354e-23
-4.54935e-19
-1.02818e-14
-4.77675e-11
-4.46362e-28
-1.54329e-23
-4.52517e-19
-1.02481e-14
-4.85655e-11
-4.45352e-28
-1.54026e-23
-4.51804e-19
-1.02381e-14
-4.88133e-11
-4.12696e-28
-1.44529e-23
-4.31745e-19
-1.01148e-14
-7.63701e-11
-4.12687e-28
-1.44516e-23
-4.31105e-19
-9.23225e-15
1.36762e-09
-4.45343e-28
-1.54011e-23
-4.51103e-19
-9.2613e-15
1.55519e-09
-4.46353e-28
-1.54315e-23
-4.51816e-19
-9.27058e-15
1.55696e-09
-4.49742e-28
-1.5534e-23
-4.54234e-19
-9.30345e-15
1.56207e-09
-4.49881e-28
-1.55384e-23
-4.54353e-19
-9.30688e-15
1.56113e-09
-4.50231e-28
-1.55499e-23
-4.54681e-19
-9.31786e-15
1.55748e-09
-4.50257e-28
-1.55509e-23
-4.54713e-19
-9.31929e-15
1.55691e-09
-4.50324e-28
-1.55534e-23
-4.54796e-19
-9.32325e-15
1.55522e-09
-4.5033e-28
-1.55536e-23
-4.54806e-19
-9.32377e-15
1.555e-09
-4.50343e-28
-1.55541e-23
-4.54825e-19
-9.32477e-15
1.55456e-09
-4.50343e-28
-1.55541e-23
-4.54825e-19
-9.32476e-15
1.55456e-09
-4.5033e-28
-1.55536e-23
-4.54806e-19
-9.32377e-15
1.555e-09
-4.50324e-28
-1.55534e-23
-4.54796e-19
-9.32325e-15
1.55522e-09
-4.50257e-28
-1.55509e-23
-4.54713e-19
-9.31929e-15
1.55691e-09
-4.50231e-28
-1.55499e-23
-4.54681e-19
-9.31786e-15
1.55748e-09
-4.49881e-28
-1.55384e-23
-4.54353e-19
-9.30688e-15
1.56113e-09
-4.49742e-28
-1.5534e-23
-4.54234e-19
-9.30345e-15
1.56207e-09
-4.46353e-28
-1.54315e-23
-4.51816e-19
-9.27058e-15
1.55696e-09
-4.45343e-28
-1.54011e-23
-4.51103e-19
-9.2613e-15
1.55519e-09
-4.12687e-28
-1.44516e-23
-4.31105e-19
-9.23225e-15
1.36762e-09
-4.12676e-28
-1.44469e-23
-4.2658e-19
-3.11985e-15
1.0384e-08
-4.4533e-28
-1.53961e-23
-4.46285e-19
-2.71925e-15
1.12242e-08
-4.4634e-28
-1.54265e-23
-4.46998e-19
-2.72664e-15
1.12312e-08
-4.4973e-28
-1.5529e-23
-4.4943e-19
-2.76159e-15
1.12507e-08
-4.49869e-28
-1.55334e-23
-4.49553e-19
-2.76893e-15
1.12459e-08
-4.50219e-28
-1.55449e-23
-4.49898e-19
-2.79588e-15
1.12273e-08
-4.50245e-28
-1.55459e-23
-4.49932e-19
-2.7995e-15
1.12245e-08
-4.50312e-28
-1.55484e-23
-4.50023e-19
-2.8106e-15
1.12159e-08
-4.50318e-28
-1.55486e-23
-4.50034e-19
-2.81197e-15
1.12148e-08
-4.5033e-28
-1.55492e-23
-4.50055e-19
-2.81488e-15
1.12125e-08
-4.5033e-28
-1.55492e-23
-4.50055e-19
-2.81488e-15
1.12125e-08
-4.50318e-28
-1.55486e-23
-4.50034e-19
-2.81197e-15
1.12148e-08
-4.50312e-28
-1.55484e-23
-4.50023e-19
-2.8106e-15
1.12159e-08
-4.50245e-28
-1.55459e-23
-4.49932e-19
-2.7995e-15
1.12245e-08
-4.50219e-28
-1.5545e-23
-4.49898e-19
-2.79588e-15
1.12273e-08
-4.49868e-28
-1.55334e-23
-4.49553e-19
-2.76893e-15
1.12459e-08
-4.4973e-28
-1.5529e-23
-4.4943e-19
-2.76159e-15
1.12507e-08
-4.4634e-28
-1.54265e-23
-4.46998e-19
-2.72663e-15
1.12312e-08
-4.4533e-28
-1.53961e-23
-4.46285e-19
-2.71925e-15
1.12242e-08
-4.12676e-28
-1.44469e-23
-4.2658e-19
-3.11985e-15
1.0384e-08
-4.12653e-28
-1.44296e-23
-4.07111e-19
2.04398e-14
4.04053e-08
-4.45306e-28
-1.53781e-23
-4.2597e-19
2.19494e-14
4.26603e-08
-4.46317e-28
-1.54085e-23
-4.2669e-19
2.19433e-14
4.2676e-08
-4.49706e-28
-1.55111e-23
-4.29193e-19
2.18825e-14
4.27176e-08
-4.49845e-28
-1.55155e-23
-4.29332e-19
2.18622e-14
4.27031e-08
-4.50195e-28
-1.55271e-23
-4.29744e-19
2.17824e-14
4.26466e-08
-4.50222e-28
-1.55281e-23
-4.29787e-19
2.17717e-14
4.26382e-08
-4.50288e-28
-1.55306e-23
-4.29907e-19
2.17371e-14
4.26119e-08
-4.50294e-28
-1.55308e-23
-4.29922e-19
2.1733e-14
4.26087e-08
-4.50307e-28
-1.55314e-23
-4.2995e-19
2.17237e-14
4.26016e-08
-4.50307e-28
-1.55314e-23
-4.2995e-19
2.17237e-14
4.26016e-08
-4.50294e-28
-1.55308e-23
-4.29922e-19
2.1733e-14
4.26087e-08
-4.50288e-28
-1.55306e-23
-4.29907e-19
2.17371e-14
4.26119e-08
-4.50222e-28
-1.55281e-23
-4.29787e-19
2.17717e-14
4.26382e-08
-4.50195e-28
-1.55271e-23
-4.29744e-19
2.17824e-14
4.26466e-08
-4.49845e-28
-1.55155e-23
-4.29332e-19
2.18622e-14
4.27031e-08
-4.49706e-28
-1.55111e-23
-4.29193e-19
2.18825e-14
4.27176e-08
-4.46317e-28
-1.54085e-23
-4.2669e-19
2.19433e-14
4.2676e-08
-4.45306e-28
-1.53781e-23
-4.2597e-19
2.19494e-14
4.26603e-08
-4.12653e-28
-1.44296e-23
-4.07111e-19
2.04398e-14
4.04053e-08
-4.12595e-28
-1.43754e-23
-3.48107e-19
8.27283e-14
1.06926e-07
-4.45246e-28
-1.53225e-23
-3.65311e-19
8.61399e-14
1.11086e-07
-4.46258e-28
-1.53529e-23
-3.66059e-19
8.61262e-14
1.11108e-07
-4.49648e-28
-1.54558e-23
-3.68806e-19
8.59619e-14
1.11153e-07
-4.49786e-28
-1.54603e-23
-3.6899e-19
8.59114e-14
1.11122e-07
-4.50137e-28
-1.54721e-23
-3.69593e-19
8.57074e-14
1.10998e-07
-4.50163e-28
-1.54731e-23
-3.6966e-19
8.56804e-14
1.1098e-07
-4.5023e-28
-1.54757e-23
-3.69863e-19
8.55907e-14
1.10923e-07
-4.50236e-28
-1.5476e-23
-3.69886e-19
8.55802e-14
1.10916e-07
-4.50249e-28
-1.54765e-23
-3.69937e-19
8.55559e-14
1.109e-07
-4.50249e-28
-1.54765e-23
-3.69937e-19
8.55559e-14
1.109e-07
-4.50236e-28
-1.5476e-23
-3.69886e-19
8.55802e-14
1.10916e-07
-4.5023e-28
-1.54757e-23
-3.69863e-19
8.55907e-14
1.10923e-07
-4.50163e-28
-1.54731e-23
-3.6966e-19
8.56804e-14
1.1098e-07
-4.50137e-28
-1.54721e-23
-3.69593e-19
8.57074e-14
1.10998e-07
-4.49786e-28
-1.54603e-23
-3.6899e-19
8.59114e-14
1.11122e-07
-4.49648e-28
-1.54558e-23
-3.68806e-19
8.59619e-14
1.11153e-07
-4.46258e-28
-1.53529e-23
-3.66059e-19
8.61262e-14
1.11108e-07
-4.45246e-28
-1.53225e-23
-3.65311e-19
8.61399e-14
1.11086e-07
-4.12595e-28
-1.43754e-23
-3.48107e-19
8.27283e-14
1.06926e-07
-4.12447e-28
-1.42341e-23
-2.07762e-19
2.10757e-13
2.19642e-07
-4.45096e-28
-1.51791e-23
-2.22635e-19
2.16516e-13
2.25485e-07
-4.46108e-28
-1.52097e-23
-2.23466e-19
2.16471e-13
2.25501e-07
-4.49499e-28
-1.53135e-23
-2.26848e-19
2.16033e-13
2.25484e-07
-4.49638e-28
-1.53181e-23
-2.27135e-19
2.15925e-13
2.25427e-07
-4.49989e-28
-1.53305e-23
-2.28167e-19
2.15486e-13
2.25207e-07
-4.50015e-28
-1.53316e-23
-2.28287e-19
2.15428e-13
2.25175e-07
-4.50082e-28
-1.53344e-23
-2.28675e-19
2.15235e-13
2.25073e-07
-4.50088e-28
-1.53347e-23
-2.28719e-19
2.15213e-13
2.25061e-07
-4.50101e-28
-1.53354e-23
-2.28821e-19
2.1516e-13
2.25033e-07
-4.50101e-28
-1.53353e-23
-2.28821e-19
2.1516e-13
2.25033e-07
-4.50088e-28
-1.53347e-23
-2.28719e-19
2.15213e-13
2.25061e-07
-4.50082e-28
-1.53344e-23
-2.28675e-19
2.15235e-13
2.25073e-07
-4.50015e-28
-1.53316e-23
-2.28287e-19
2.15428e-13
2.25175e-07
-4.49989e-28
-1.53305e-23
-2.28167e-19
2.15486e-13
2.25207e-07
-4.49638e-28
-1.53181e-23
-2.27134e-19
2.15925e-13
2.25427e-07
-4.49499e-28
-1.53135e-23
-2.26848e-19
2.16033e-13
2.25484e-07
-4.46108e-28
-1.52097e-23
-2.23466e-19
2.16471e-13
2.25501e-07
-4.45096e-28
-1.51791e-23
-2.22635e-19
2.16516e-13
2.25485e-07
-4.12447e-28
-1.42341e-23
-2.07762e-19
2.10757e-13
2.19642e-07
-4.12095e-28
-1.39186e-23
7.36184e-20
4.32519e-13
3.8006e-07
-4.44742e-28
-1.48617e-23
6.09667e-20
4.4033e-13
3.86716e-07
-4.45755e-28
-1.48926e-23
5.9946e-20
4.40208e-13
3.86704e-07
-4.4915e-28
-1.49986e-23
5.51934e-20
4.39203e-13
3.86507e-07
-4.49289e-28
-1.50035e-23
5.47113e-20
4.39003e-13
3.86418e-07
-4.49642e-28
-1.50172e-23
5.28461e-20
4.38172e-13
3.86064e-07
-4.49669e-28
-1.50184e-23
5.26257e-20
4.38066e-13
3.86015e-07
-4.49736e-28
-1.50218e-23
5.188e-20
4.37703e-13
3.85855e-07
-4.49742e-28
-1.50221e-23
5.17964e-20
4.37662e-13
3.85836e-07
-4.49756e-28
-1.50229e-23
5.15968e-20
4.37562e-13
3.85792e-07
-4.49756e-28
-1.50229e-23
5.15969e-20
4.37562e-13
3.85792e-07
-4.49742e-28
-1.50221e-23
5.17964e-20
4.37662e-13
3.85836e-07
-4.49736e-28
-1.50218e-23
5.188e-20
4.37703e-13
3.85855e-07
-4.49669e-28
-1.50184e-23
5.26257e-20
4.38066e-13
3.86015e-07
-4.49642e-28
-1.50172e-23
5.28461e-20
4.38172e-13
3.86064e-07
-4.49289e-28
-1.50035e-23
5.47113e-20
4.39003e-13
3.86418e-07
-4.4915e-28
-1.49986e-23
5.51934e-20
4.39203e-13
3.86507e-07
-4.45755e-28
-1.48926e-23
5.9946e-20
4.40208e-13
3.86704e-07
-4.44742e-28
-1.48617e-23
6.09667e-20
4.4033e-13
3.86716e-07
-4.12095e-28
-1.39186e-23
7.36183e-20
4.32519e-13
3.8006e-07
-4.1134e-28
-1.32944e-23
5.72314e-19
7.73907e-13
5.84411e-07
-4.4399e-28
-1.42382e-23
5.60233e-19
7.82561e-13
5.90696e-07
-4.45005e-28
-1.42698e-23
5.58843e-19
7.82296e-13
5.90631e-07
-4.48406e-28
-1.43803e-23
5.51511e-19
7.80287e-13
5.90096e-07
-4.48547e-28
-1.43857e-23
5.50692e-19
7.79947e-13
5.89964e-07
-4.48903e-28
-1.44019e-23
5.47381e-19
7.78523e-13
5.89434e-07
-4.4893e-28
-1.44034e-23
5.46988e-19
7.78345e-13
5.89364e-07
-4.49e-28
-1.44078e-23
5.45625e-19
7.77727e-13
5.89128e-07
-4.49006e-28
-1.44083e-23
5.45474e-19
7.77658e-13
5.891e-07
-4.4902e-28
-1.44093e-23
5.45106e-19
7.77488e-13
5.89035e-07
-4.49019e-28
-1.44093e-23
5.45106e-19
7.77488e-13
5.89035e-07
-4.49006e-28
-1.44083e-23
5.45474e-19
7.77658e-13
5.891e-07
-4.49e-28
-1.44078e-23
5.45625e-19
7.77727e-13
5.89128e-07
-4.4893e-28
-1.44034e-23
5.46988e-19
7.78345e-13
5.89364e-07
-4.48903e-28
-1.44019e-23
5.47381e-19
7.78523e-13
5.89434e-07
-4.48547e-28
-1.43857e-23
5.50692e-19
7.79947e-13
5.89964e-07
-4.48406e-28
-1.43803e-23
5.51511e-19
7.80287e-13
5.90096e-07
-4.45005e-28
-1.42698e-23
5.58843e-19
7.82296e-13
5.90631e-07
-4.4399e-28
-1.42382e-23
5.60233e-19
7.82561e-13
5.90696e-07
-4.11341e-28
-1.32944e-23
5.72314e-19
7.73907e-13
5.84411e-07
-4.09859e-28
-1.21708e-23
1.37909e-18
1.25754e-12
8.27006e-07
-4.42523e-28
-1.31221e-23
1.36364e-18
1.2649e-12
8.31686e-07
-4.43541e-28
-1.31549e-23
1.36161e-18
1.2644e-12
8.31539e-07
-4.46957e-28
-1.32738e-23
1.34989e-18
1.2608e-12
8.30483e-07
-4.47099e-28
-1.32803e-23
1.34853e-18
1.26026e-12
8.30298e-07
-4.47463e-28
-1.33008e-23
1.3429e-18
1.25799e-12
8.29535e-07
-4.47491e-28
-1.33028e-23
1.34224e-18
1.25771e-12
8.29437e-07
-4.47563e-28
-1.33091e-23
1.33989e-18
1.25673e-12
8.29104e-07
-4.4757e-28
-1.33098e-23
1.33963e-18
1.25663e-12
8.29066e-07
-4.47584e-28
-1.33113e-23
1.33899e-18
1.25636e-12
8.28974e-07
-4.47584e-28
-1.33113e-23
1.33899e-18
1.25636e-12
8.28974e-07
-4.4757e-28
-1.33098e-23
1.33963e-18
1.25663e-12
8.29066e-07
-4.47563e-28
-1.33091e-23
1.33989e-18
1.25673e-12
8.29104e-07
-4.47491e-28
-1.33028e-23
1.34224e-18
1.25771e-12
8.29437e-07
-4.47463e-28
-1.33008e-23
1.3429e-18
1.25799e-12
8.29535e-07
-4.47099e-28
-1.32803e-23
1.34853e-18
1.26026e-12
8.30298e-07
-4.46957e-28
-1.32738e-23
1.34989e-18
1.2608e-12
8.30483e-07
-4.43541e-28
-1.31549e-23
1.36161e-18
1.2644e-12
8.31539e-07
-4.42523e-28
-1.31221e-23
1.36364e-18
1.2649e-12
8.31686e-07
-4.09859e-28
-1.21708e-23
1.37909e-18
1.25754e-12
8.27006e-07
-4.07203e-28
-1.03582e-23
2.4925e-18
1.73935e-12
8.24476e-07
-4.39906e-28
-1.13281e-23
2.46976e-18
1.74545e-12
8.29221e-07
-4.40929e-28
-1.13629e-23
2.46683e-18
1.74472e-12
8.29078e-07
-4.44371e-28
-1.14957e-23
2.44892e-18
1.73955e-12
8.28044e-07
-4.44516e-28
-1.15038e-23
2.44683e-18
1.73882e-12
8.27861e-07
-4.44893e-28
-1.15313e-23
2.43802e-18
1.73571e-12
8.27108e-07
-4.44923e-28
-1.15341e-23
2.43699e-18
1.73534e-12
8.27012e-07
-4.45e-28
-1.15433e-23
2.43329e-18
1.734e-12
8.26683e-07
-4.45008e-28
-1.15443e-23
2.43289e-18
1.73385e-12
8.26645e-07
-4.45024e-28
-1.15466e-23
2.43188e-18
1.73349e-12
8.26555e-07
-4.45024e-28
-1.15466e-23
2.43188e-18
1.73349e-12
8.26555e-07
-4.45008e-28
-1.15443e-23
2.43289e-18
1.73385e-12
8.26645e-07
-4.45e-28
-1.15433e-23
2.43329e-18
1.734e-12
8.26683e-07
-4.44922e-28
-1.15341e-23
2.43699e-18
1.73534e-12
8.27012e-07
-4.44893e-28
-1.15313e-23
2.43802e-18
1.73571e-12
8.27108e-07
-4.44516e-28
-1.15038e-23
2.44683e-18
1.73882e-12
8.27861e-07
-4.44371e-28
-1.14957e-23
2.44892e-18
1.73955e-12
8.28044e-07
-4.40929e-28
-1.13629e-23
2.46683e-18
1.74472e-12
8.29078e-07
-4.39906e-28
-1.13281e-23
2.46976e-18
1.74545e-12
8.29221e-07
-4.07203e-28
-1.03582e-23
2.4925e-18
1.73935e-12
8.24476e-07
-4.02803e-28
-7.668e-24
3.91105e-18
2.21933e-12
8.22009e-07
-4.35584e-28
-8.67183e-24
3.8771e-18
2.2242e-12
8.26819e-07
-4.36615e-28
-8.70975e-24
3.873e-18
2.22325e-12
8.26679e-07
-4.40102e-28
-8.86334e-24
3.84714e-18
2.21652e-12
8.25667e-07
-4.40251e-28
-8.87376e-24
3.84414e-18
2.2156e-12
8.25487e-07
-4.4065e-28
-8.91156e-24
3.83129e-18
2.21167e-12
8.24743e-07
-4.40682e-28
-8.91556e-24
3.82979e-18
2.21119e-12
8.24648e-07
-4.40769e-28
-8.92915e-24
3.82439e-18
2.2095e-12
8.24323e-07
-4.40777e-28
-8.93059e-24
3.82381e-18
2.20932e-12
8.24286e-07
-4.40796e-28
-8.93414e-24
3.82233e-18
2.20885e-12
8.24197e-07
-4.40796e-28
-8.93414e-24
3.82233e-18
2.20885e-12
8.24197e-07
-4.40777e-28
-8.93059e-24
3.82381e-18
2.20932e-12
8.24286e-07
-4.40769e-28
-8.92915e-24
3.82439e-18
2.2095e-12
8.24323e-07
-4.40682e-28
-8.91556e-24
3.82979e-18
2.21119e-12
8.24648e-07
-4.4065e-28
-8.91157e-24
3.83129e-18
2.21167e-12
8.24743e-07
-4.40251e-28
-8.87376e-24
3.84414e-18
2.2156e-12
8.25487e-07
-4.40102e-28
-8.86334e-24
3.84714e-18
2.21652e-12
8.25667e-07
-4.36615e-28
-8.70975e-24
3.873e-18
2.22325e-12
8.26679e-07
-4.35584e-28
-8.67183e-24
3.8771e-18
2.2242e-12
8.26819e-07
-4.02803e-28
-7.668e-24
3.91105e-18
2.21933e-12
8.22009e-07
-3.95965e-28
-3.9128e-24
5.63315e-18
2.6974e-12
8.19601e-07
-4.28886e-28
-4.97025e-24
5.58408e-18
2.70107e-12
8.24472e-07
-4.29928e-28
-5.0125e-24
5.57856e-18
2.6999e-12
8.24337e-07
-4.33484e-28
-5.19535e-24
5.54301e-18
2.69165e-12
8.23345e-07
-4.33641e-28
-5.20902e-24
5.5389e-18
2.69054e-12
8.23167e-07
-4.34074e-28
-5.26117e-24
5.52118e-18
2.68578e-12
8.22433e-07
-4.34109e-28
-5.2668e-24
5.51912e-18
2.68521e-12
8.22339e-07
-4.3421e-28
-5.28643e-24
5.51166e-18
2.68317e-12
8.22018e-07
-4.3422e-28
-5.28851e-24
5.51085e-18
2.68295e-12
8.21981e-07
-4.34242e-28
-5.29371e-24
5.50882e-18
2.68239e-12
8.21893e-07
-4.34242e-28
-5.29371e-24
5.50882e-18
2.68239e-12
8.21893e-07
-4.3422e-28
-5.28851e-24
5.51085e-18
2.68295e-12
8.21981e-07
-4.3421e-28
-5.28643e-24
5.51166e-18
2.68317e-12
8.22018e-07
-4.34109e-28
-5.2668e-24
5.51912e-18
2.68521e-12
8.22339e-07
-4.34074e-28
-5.26117e-24
5.52118e-18
2.68578e-12
8.22433e-07
-4.33641e-28
-5.20901e-24
5.5389e-18
2.69054e-12
8.23167e-07
-4.33484e-28
-5.19535e-24
5.54301e-18
2.69165e-12
8.23345e-07
-4.29928e-28
-5.0125e-24
5.57856e-18
2.6999e-12
8.24337e-07
-4.28886e-28
-4.97025e-24
5.58408e-18
2.70107e-12
8.24472e-07
-3.95965e-28
-3.9128e-24
5.63315e-18
2.6974e-12
8.19601e-07
-3.85876e-28
1.09364e-24
7.65711e-18
3.17349e-12
8.17246e-07
-4.19019e-28
-4.14579e-26
7.58901e-18
3.17599e-12
8.22177e-07
-4.20078e-28
-8.94863e-26
7.58184e-18
3.17461e-12
8.22045e-07
-4.23737e-28
-3.11512e-25
7.53489e-18
3.16485e-12
8.21074e-07
-4.23906e-28
-3.29476e-25
7.52949e-18
3.16356e-12
8.20898e-07
-4.24387e-28
-4.00696e-25
7.50607e-18
3.15799e-12
8.20173e-07
-4.24428e-28
-4.08473e-25
7.50336e-18
3.15732e-12
8.20081e-07
-4.2455e-28
-4.36131e-25
7.49348e-18
3.15494e-12
8.19763e-07
-4.24562e-28
-4.39049e-25
7.49242e-18
3.15468e-12
8.19727e-07
-4.2459e-28
-4.4644e-25
7.48973e-18
3.15403e-12
8.1964e-07
-4.2459e-28
-4.46439e-25
7.48973e-18
3.15403e-12
8.1964e-07
-4.24562e-28
-4.39049e-25
7.49242e-18
3.15468e-12
8.19727e-07
-4.2455e-28
-4.3613e-25
7.49348e-18
3.15494e-12
8.19763e-07
-4.24428e-28
-4.08472e-25
7.50336e-18
3.15732e-12
8.20081e-07
-4.24387e-28
-4.00697e-25
7.50607e-18
3.15799e-12
8.20173e-07
-4.23906e-28
-3.29474e-25
7.52949e-18
3.16356e-12
8.20898e-07
-4.23737e-28
-3.11511e-25
7.53489e-18
3.16485e-12
8.21074e-07
-4.20078e-28
-8.9484e-26
7.58184e-18
3.17461e-12
8.22045e-07
-4.19019e-28
-4.14542e-26
7.58901e-18
3.17599e-12
8.22177e-07
-3.85876e-28
1.09364e-24
7.65711e-18
3.17349e-12
8.17246e-07
-3.71597e-28
7.53628e-24
9.98119e-18
3.64753e-12
8.14941e-07
-4.05077e-28
6.29516e-24
9.89017e-18
3.64888e-12
8.1993e-07
-4.06158e-28
6.2397e-24
9.88109e-18
3.64729e-12
8.19802e-07
-4.09964e-28
5.96714e-24
9.82107e-18
3.63605e-12
8.1885e-07
-4.10148e-28
5.94369e-24
9.8142e-18
3.63458e-12
8.18677e-07
-4.10699e-28
5.84802e-24
9.78425e-18
3.62821e-12
8.1796e-07
-4.10748e-28
5.8375e-24
9.7808e-18
3.62745e-12
8.17869e-07
-4.10899e-28
5.79956e-24
9.76816e-18
3.62473e-12
8.17556e-07
-4.10913e-28
5.79557e-24
9.76682e-18
3.62443e-12
8.1752e-07
-4.10949e-28
5.78537e-24
9.76337e-18
3.62368e-12
8.17434e-07
-4.10949e-28
5.78537e-24
9.76337e-18
3.62368e-12
8.17434e-07
-4.10913e-28
5.79557e-24
9.76682e-18
3.62443e-12
8.1752e-07
-4.10899e-28
5.79956e-24
9.76816e-18
3.62473e-12
8.17556e-07
-4.10748e-28
5.8375e-24
9.7808e-18
3.62745e-12
8.17869e-07
-4.10699e-28
5.84802e-24
9.78425e-18
3.62821e-12
8.1796e-07
-4.10148e-28
5.94369e-24
9.8142e-18
3.63458e-12
8.18677e-07
-4.09964e-28
5.96714e-24
9.82107e-18
3.63605e-12
8.1885e-07
-4.06158e-28
6.2397e-24
9.88109e-18
3.64729e-12
8.19802e-07
-4.05077e-28
6.29517e-24
9.89017e-18
3.64888e-12
8.1993e-07
-3.71597e-28
7.53628e-24
9.98119e-18
3.64753e-12
8.14941e-07
-3.5207e-28
1.55988e-23
1.26035e-17
4.11944e-12
8.12682e-07
-3.86033e-28
1.42189e-23
1.24857e-17
4.11967e-12
8.17727e-07
-3.87146e-28
1.41541e-23
1.24745e-17
4.11788e-12
8.17603e-07
-3.91152e-28
1.38183e-23
1.23998e-17
4.10518e-12
8.1667e-07
-3.91357e-28
1.3788e-23
1.23912e-17
4.10353e-12
8.16498e-07
-3.92003e-28
1.36619e-23
1.2354e-17
4.09637e-12
8.15791e-07
-3.92062e-28
1.36479e-23
1.23497e-17
4.09552e-12
8.15701e-07
-3.92252e-28
1.35972e-23
1.23339e-17
4.09246e-12
8.15391e-07
-3.92271e-28
1.35919e-23
1.23323e-17
4.09213e-12
8.15355e-07
-3.92318e-28
1.35782e-23
1.2328e-17
4.09129e-12
8.15271e-07
-3.92318e-28
1.35782e-23
1.2328e-17
4.09129e-12
8.15271e-07
-3.92271e-28
1.35919e-23
1.23323e-17
4.09213e-12
8.15355e-07
-3.92252e-28
1.35972e-23
1.23339e-17
4.09246e-12
8.15391e-07
-3.92062e-28
1.36479e-23
1.23497e-17
4.09552e-12
8.15701e-07
-3.92003e-28
1.36619e-23
1.2354e-17
4.09637e-12
8.15791e-07
-3.91357e-28
1.3788e-23
1.23912e-17
4.10353e-12
8.16498e-07
-3.91152e-28
1.38183e-23
1.23998e-17
4.10518e-12
8.1667e-07
-3.87145e-28
1.41541e-23
1.24745e-17
4.11788e-12
8.17603e-07
-3.86033e-28
1.42189e-23
1.24857e-17
4.11967e-12
8.17727e-07
-3.5207e-28
1.55988e-23
1.26035e-17
4.11944e-12
8.12682e-07
-3.26117e-28
2.54636e-23
1.55222e-17
4.58912e-12
8.10464e-07
-3.60745e-28
2.39077e-23
1.53737e-17
4.58828e-12
8.15565e-07
-3.61899e-28
2.38316e-23
1.53601e-17
4.58629e-12
8.15444e-07
-3.66172e-28
2.34183e-23
1.52691e-17
4.57216e-12
8.1453e-07
-3.66405e-28
2.33798e-23
1.52587e-17
4.57033e-12
8.1436e-07
-3.67176e-28
2.32164e-23
1.52133e-17
4.56238e-12
8.13661e-07
-3.6725e-28
2.31983e-23
1.52081e-17
4.56145e-12
8.13572e-07
-3.67493e-28
2.3132e-23
1.5189e-17
4.55805e-12
8.13265e-07
-3.67517e-28
2.3125e-23
1.51869e-17
4.55769e-12
8.13231e-07
-3.67578e-28
2.31071e-23
1.51817e-17
4.55676e-12
8.13147e-07
-3.67578e-28
2.31071e-23
1.51817e-17
4.55676e-12
8.13147e-07
-3.67517e-28
2.3125e-23
1.51869e-17
4.55769e-12
8.13231e-07
-3.67493e-28
2.3132e-23
1.5189e-17
4.55805e-12
8.13265e-07
-3.6725e-28
2.31983e-23
1.52081e-17
4.56145e-12
8.13572e-07
-3.67176e-28
2.32164e-23
1.52133e-17
4.56238e-12
8.13661e-07
-3.66405e-28
2.33798e-23
1.52587e-17
4.57033e-12
8.1436e-07
-3.66172e-28
2.34183e-23
1.52691e-17
4.57216e-12
8.1453e-07
-3.61899e-28
2.38316e-23
1.53601e-17
4.58629e-12
8.15444e-07
-3.60745e-28
2.39077e-23
1.53737e-17
4.58828e-12
8.15565e-07
-3.26117e-28
2.54636e-23
1.55222e-17
4.58912e-12
8.10464e-07
-2.92436e-28
3.73115e-23
1.87353e-17
5.05651e-12
8.08284e-07
-3.27957e-28
3.5538e-23
1.85522e-17
5.05461e-12
8.13438e-07
-3.29164e-28
3.54483e-23
1.8536e-17
5.05243e-12
8.13321e-07
-3.33783e-28
3.49422e-23
1.8427e-17
5.03689e-12
8.12425e-07
-3.34052e-28
3.48938e-23
1.84147e-17
5.03489e-12
8.12257e-07
-3.34985e-28
3.46859e-23
1.83604e-17
5.02618e-12
8.11566e-07
-3.35077e-28
3.46629e-23
1.83542e-17
5.02515e-12
8.11478e-07
-3.35387e-28
3.45778e-23
1.83313e-17
5.02143e-12
8.11175e-07
-3.35419e-28
3.45689e-23
1.83289e-17
5.02103e-12
8.11141e-07
-3.35498e-28
3.45459e-23
1.83226e-17
5.02001e-12
8.11058e-07
-3.35498e-28
3.45459e-23
1.83226e-17
5.02001e-12
8.11058e-07
-3.35419e-28
3.45689e-23
1.83289e-17
5.02103e-12
8.11141e-07
-3.35387e-28
3.45778e-23
1.83313e-17
5.02143e-12
8.11175e-07
-3.35077e-28
3.46629e-23
1.83542e-17
5.02515e-12
8.11478e-07
-3.34985e-28
3.46859e-23
1.83604e-17
5.02618e-12
8.11566e-07
-3.34052e-28
3.48938e-23
1.84147e-17
5.03489e-12
8.12257e-07
-3.33783e-28
3.49422e-23
1.8427e-17
5.03689e-12
8.12425e-07
-3.29163e-28
3.54483e-23
1.8536e-17
5.05243e-12
8.13321e-07
-3.27957e-28
3.5538e-23
1.85522e-17
5.05461e-12
8.13438e-07
-2.92436e-28
3.73115e-23
1.87353e-17
5.05651e-12
8.08284e-07
-2.49608e-28
5.13222e-23
2.22407e-17
5.52152e-12
8.06134e-07
-2.86294e-28
4.92848e-23
2.2019e-17
5.51859e-12
8.11341e-07
-2.87567e-28
4.91791e-23
2.20001e-17
5.51622e-12
8.11226e-07
-2.92627e-28
4.85634e-23
2.18717e-17
5.4993e-12
8.10348e-07
-2.92941e-28
4.85034e-23
2.18572e-17
5.49713e-12
8.10183e-07
-2.94081e-28
4.8243e-23
2.17932e-17
5.48766e-12
8.09499e-07
-2.94194e-28
4.82142e-23
2.1786e-17
5.48655e-12
8.09412e-07
-2.94591e-28
4.81071e-23
2.1759e-17
5.4825e-12
8.09113e-07
-2.94631e-28
4.8096e-23
2.17561e-17
5.48207e-12
8.09079e-07
-2.94734e-28
4.80669e-23
2.17487e-17
5.48097e-12
8.08997e-07
-2.94734e-28
4.80669e-23
2.17487e-17
5.48097e-12
8.08997e-07
-2.94631e-28
4.8096e-23
2.17561e-17
5.48207e-12
8.09079e-07
-2.94591e-28
4.81071e-23
2.1759e-17
5.4825e-12
8.09113e-07
-2.94194e-28
4.82142e-23
2.1786e-17
5.48655e-12
8.09412e-07
-2.94081e-28
4.8243e-23
2.17932e-17
5.48766e-12
8.09499e-07
-2.92941e-28
4.85034e-23
2.18572e-17
5.49713e-12
8.10183e-07
-2.92626e-28
4.85634e-23
2.18717e-17
5.4993e-12
8.10348e-07
-2.87567e-28
4.91791e-23
2.20001e-17
5.51622e-12
8.11226e-07
-2.86294e-28
4.92848e-23
2.2019e-17
5.51859e-12
8.11341e-07
-2.49608e-28
5.13222e-23
2.22407e-17
5.52152e-12
8.06134e-07
-1.96092e-28
6.76737e-23
2.60362e-17
5.98403e-12
8.03983e-07
-2.34267e-28
6.53217e-23
2.57721e-17
5.98011e-12
8.09242e-07
-2.35623e-28
6.51974e-23
2.57502e-17
5.97755e-12
8.09131e-07
-2.41232e-28
6.44541e-23
2.56009e-17
5.95929e-12
8.08271e-07
-2.41603e-28
6.43806e-23
2.55841e-17
5.95695e-12
8.08107e-07
-2.43e-28
6.40591e-23
2.55097e-17
5.94673e-12
8.07431e-07
-2.43141e-28
6.40237e-23
2.55012e-17
5.94554e-12
8.07345e-07
-2.43646e-28
6.38909e-23
2.54698e-17
5.94117e-12
8.0705e-07
-2.43696e-28
6.38772e-23
2.54666e-17
5.94071e-12
8.07016e-07
-2.43829e-28
6.38411e-23
2.5458e-17
5.93952e-12
8.06935e-07
-2.43828e-28
6.38411e-23
2.5458e-17
5.93952e-12
8.06935e-07
-2.43696e-28
6.38772e-23
2.54666e-17
5.94071e-12
8.07016e-07
-2.43646e-28
6.38909e-23
2.54698e-17
5.94117e-12
8.0705e-07
-2.43141e-28
6.40237e-23
2.55012e-17
5.94554e-12
8.07345e-07
-2.43e-28
6.40591e-23
2.55097e-17
5.94673e-12
8.07431e-07
-2.41603e-28
6.43806e-23
2.55841e-17
5.95695e-12
8.08107e-07
-2.41232e-28
6.44541e-23
2.56009e-17
5.95929e-12
8.08271e-07
-2.35623e-28
6.51974e-23
2.57502e-17
5.97755e-12
8.09131e-07
-2.34267e-28
6.53217e-23
2.57721e-17
5.98011e-12
8.09242e-07
-1.96092e-28
6.76737e-23
2.60362e-17
5.98403e-12
8.03983e-07
4.77123e-07
-1.12968e-06
-6.275e-08
-5.84081e-10
-9.40343e-13
7.69518e-16
1.09294e-15
1.09546e-15
1.09601e-15
1.09609e-15
1.09617e-15
1.09661e-15
1.09895e-15
1.10189e-15
1.12662e-15
1.14833e-15
1.37908e-15
1.50651e-15
4.76506e-15
5.57772e-15
2.0867e-06
-1.01461e-06
-6.39326e-08
-6.29078e-10
-1.06033e-12
7.15658e-16
1.09286e-15
1.09543e-15
1.09599e-15
1.09608e-15
1.0961e-15
1.09646e-15
1.09885e-15
1.10183e-15
1.12697e-15
1.14893e-15
1.38257e-15
1.51082e-15
4.80584e-15
5.62742e-15
2.10821e-06
-1.01323e-06
-6.39229e-08
-6.29239e-10
-1.06099e-12
7.15227e-16
1.09286e-15
1.09543e-15
1.09599e-15
1.09608e-15
1.0961e-15
1.09647e-15
1.09886e-15
1.10185e-15
1.12699e-15
1.14896e-15
1.38264e-15
1.5109e-15
4.80624e-15
5.62782e-15
2.18416e-06
-1.00763e-06
-6.37317e-08
-6.27371e-10
-1.05778e-12
7.15932e-16
1.09285e-15
1.09544e-15
1.09599e-15
1.09608e-15
1.09611e-15
1.09651e-15
1.0989e-15
1.10189e-15
1.12707e-15
1.14904e-15
1.38286e-15
1.51114e-15
4.80746e-15
5.6289e-15
2.18009e-06
-1.00794e-06
-6.37225e-08
-6.27167e-10
-1.05727e-12
7.16119e-16
1.09285e-15
1.09544e-15
1.09599e-15
1.09608e-15
1.09611e-15
1.09651e-15
1.09891e-15
1.1019e-15
1.12707e-15
1.14905e-15
1.38287e-15
1.51114e-15
4.80748e-15
5.62892e-15
2.16592e-06
-1.00881e-06
-6.36647e-08
-6.26186e-10
-1.05504e-12
7.16927e-16
1.09285e-15
1.09544e-15
1.09599e-15
1.09608e-15
1.09611e-15
1.09651e-15
1.09891e-15
1.1019e-15
1.12708e-15
1.14905e-15
1.38288e-15
1.51115e-15
4.80753e-15
5.62895e-15
2.163e-06
-1.00903e-06
-6.36616e-08
-6.261e-10
-1.05482e-12
7.17014e-16
1.09285e-15
1.09544e-15
1.09599e-15
1.09608e-15
1.09612e-15
1.09652e-15
1.09891e-15
1.1019e-15
1.12708e-15
1.14905e-15
1.38288e-15
1.51116e-15
4.80753e-15
5.62895e-15
2.15575e-06
-1.00951e-06
-6.3643e-08
-6.25765e-10
-1.05406e-12
7.17289e-16
1.09285e-15
1.09544e-15
1.09599e-15
1.09608e-15
1.09612e-15
1.09652e-15
1.09891e-15
1.1019e-15
1.12708e-15
1.14905e-15
1.38288e-15
1.51116e-15
4.80753e-15
5.62895e-15
2.15463e-06
-1.00959e-06
-6.36422e-08
-6.25738e-10
-1.05399e-12
7.17316e-16
1.09285e-15
1.09544e-15
1.09599e-15
1.09608e-15
1.09612e-15
1.09652e-15
1.09891e-15
1.1019e-15
1.12708e-15
1.14905e-15
1.38288e-15
1.51116e-15
4.80753e-15
5.62895e-15
2.15277e-06
-1.00972e-06
-6.36379e-08
-6.2566e-10
-1.05382e-12
7.17377e-16
1.09285e-15
1.09544e-15
1.09599e-15
1.09608e-15
1.09612e-15
1.09652e-15
1.09891e-15
1.1019e-15
1.12708e-15
1.14905e-15
1.38288e-15
1.51116e-15
4.80753e-15
5.62895e-15
2.15277e-06
-1.00972e-06
-6.36379e-08
-6.2566e-10
-1.05382e-12
7.17377e-16
1.09285e-15
1.09544e-15
1.09599e-15
1.09608e-15
1.09612e-15
1.09652e-15
1.09891e-15
1.1019e-15
1.12708e-15
1.14905e-15
1.38288e-15
1.51116e-15
4.80753e-15
5.62895e-15
2.15463e-06
-1.00959e-06
-6.36422e-08
-6.25738e-10
-1.05399e-12
7.17316e-16
1.09285e-15
1.09544e-15
1.09599e-15
1.09608e-15
1.09612e-15
1.09652e-15
1.09891e-15
1.1019e-15
1.12708e-15
1.14905e-15
1.38288e-15
1.51116e-15
4.80753e-15
5.62895e-15
2.15575e-06
-1.00951e-06
-6.3643e-08
-6.25765e-10
-1.05406e-12
7.17289e-16
1.09285e-15
1.09544e-15
1.09599e-15
1.09608e-15
1.09612e-15
1.09652e-15
1.09891e-15
1.1019e-15
1.12708e-15
1.14905e-15
1.38288e-15
1.51116e-15
4.80753e-15
5.62895e-15
2.163e-06
-1.00903e-06
-6.36616e-08
-6.261e-10
-1.05482e-12
7.17014e-16
1.09285e-15
1.09544e-15
1.09599e-15
1.09608e-15
1.09612e-15
1.09652e-15
1.09891e-15
1.1019e-15
1.12708e-15
1.14905e-15
1.38288e-15
1.51116e-15
4.80753e-15
5.62895e-15
2.16592e-06
-1.00881e-06
-6.36647e-08
-6.26186e-10
-1.05504e-12
7.16927e-16
1.09285e-15
1.09544e-15
1.09599e-15
1.09608e-15
1.09611e-15
1.09651e-15
1.09891e-15
1.1019e-15
1.12708e-15
1.14905e-15
1.38288e-15
1.51115e-15
4.80753e-15
5.62895e-15
2.18009e-06
-1.00794e-06
-6.37225e-08
-6.27167e-10
-1.05727e-12
7.16119e-16
1.09285e-15
1.09544e-15
1.09599e-15
1.09608e-15
1.09611e-15
1.09651e-15
1.09891e-15
1.1019e-15
1.12707e-15
1.14905e-15
1.38287e-15
1.51114e-15
4.80748e-15
5.62892e-15
2.18416e-06
-1.00763e-06
-6.37317e-08
-6.27371e-10
-1.05778e-12
7.15932e-16
1.09285e-15
1.09544e-15
1.09599e-15
1.09608e-15
1.09611e-15
1.09651e-15
1.0989e-15
1.10189e-15
1.12707e-15
1.14904e-15
1.38286e-15
1.51114e-15
4.80746e-15
5.6289e-15
2.10821e-06
-1.01323e-06
-6.39229e-08
-6.29239e-10
-1.06099e-12
7.15227e-16
1.09286e-15
1.09543e-15
1.09599e-15
1.09608e-15
1.0961e-15
1.09647e-15
1.09886e-15
1.10185e-15
1.12699e-15
1.14896e-15
1.38264e-15
1.5109e-15
4.80624e-15
5.62782e-15
2.0867e-06
-1.01461e-06
-6.39326e-08
-6.29078e-10
-1.06033e-12
7.15658e-16
1.09286e-15
1.09543e-15
1.09599e-15
1.09608e-15
1.0961e-15
1.09646e-15
1.09885e-15
1.10183e-15
1.12697e-15
1.14893e-15
1.38257e-15
1.51082e-15
4.80584e-15
5.62742e-15
4.77123e-07