/*--------------------------------*- C++ -*----------------------------------*\
  =========                 |
  \\      /  F ield         | OpenFOAM: The Open Source CFD Toolbox
   \\    /   O peration     | Website:  https://openfoam.org
    \\  /    A nd           | Version:  8
     \\/     M anipulation  |
\*---------------------------------------------------------------------------*/
FoamFile
{
    version     2.0;
    format      ascii;
    class       volScalarField;
    location    "0.2";
    object      S1;
}
// * * * * * * * * * * * * * * * * * * * * * * * * * * * * * * * * * * * * * //

dimensions      [0 1 -1 0 0 0 0];

internalField   nonuniform List<scalar> 
180000
(
-1.02602e-52
-3.04564e-47
-9.5314e-42
-2.98839e-36
-8.90463e-31
-1.01832e-52
-3.02878e-47
-9.49626e-42
-2.98202e-36
-8.89674e-31
-1.01828e-52
-3.02873e-47
-9.49622e-42
-2.98202e-36
-8.89678e-31
-1.01807e-52
-3.02836e-47
-9.49563e-42
-2.98195e-36
-8.89677e-31
-1.01808e-52
-3.02838e-47
-9.49569e-42
-2.98197e-36
-8.8968e-31
-1.01807e-52
-3.02837e-47
-9.49571e-42
-2.98198e-36
-8.89682e-31
-1.01808e-52
-3.02839e-47
-9.49575e-42
-2.98199e-36
-8.89684e-31
-1.01808e-52
-3.0284e-47
-9.49577e-42
-2.98199e-36
-8.89685e-31
-1.01808e-52
-3.0284e-47
-9.49578e-42
-2.98199e-36
-8.89686e-31
-1.01809e-52
-3.0284e-47
-9.49578e-42
-2.98199e-36
-8.89686e-31
-1.01809e-52
-3.0284e-47
-9.49578e-42
-2.98199e-36
-8.89686e-31
-1.01808e-52
-3.0284e-47
-9.49578e-42
-2.98199e-36
-8.89686e-31
-1.01808e-52
-3.0284e-47
-9.49577e-42
-2.98199e-36
-8.89685e-31
-1.01808e-52
-3.02839e-47
-9.49575e-42
-2.98199e-36
-8.89684e-31
-1.01807e-52
-3.02837e-47
-9.49571e-42
-2.98198e-36
-8.89682e-31
-1.01808e-52
-3.02838e-47
-9.49569e-42
-2.98197e-36
-8.8968e-31
-1.01807e-52
-3.02836e-47
-9.49563e-42
-2.98195e-36
-8.89677e-31
-1.01828e-52
-3.02873e-47
-9.49622e-42
-2.98202e-36
-8.89678e-31
-1.01832e-52
-3.02878e-47
-9.49626e-42
-2.98202e-36
-8.89674e-31
-1.02602e-52
-3.04564e-47
-9.5314e-42
-2.98839e-36
-8.90463e-31
-8.19826e-51
-2.49513e-45
-9.7702e-40
-4.08402e-34
-2.75283e-28
-8.02975e-51
-2.45276e-45
-9.64953e-40
-4.05148e-34
-2.74416e-28
-8.02915e-51
-2.45267e-45
-9.64952e-40
-4.05152e-34
-2.7442e-28
-8.02496e-51
-2.45178e-45
-9.6477e-40
-4.05119e-34
-2.7442e-28
-8.02529e-51
-2.45188e-45
-9.64804e-40
-4.05129e-34
-2.74423e-28
-8.02531e-51
-2.45191e-45
-9.6482e-40
-4.05135e-34
-2.74426e-28
-8.02552e-51
-2.45197e-45
-9.64839e-40
-4.05139e-34
-2.74428e-28
-8.02564e-51
-2.452e-45
-9.64849e-40
-4.05142e-34
-2.74429e-28
-8.02573e-51
-2.45202e-45
-9.64856e-40
-4.05144e-34
-2.7443e-28
-8.02576e-51
-2.45203e-45
-9.64859e-40
-4.05145e-34
-2.7443e-28
-8.02576e-51
-2.45203e-45
-9.64859e-40
-4.05145e-34
-2.7443e-28
-8.02573e-51
-2.45202e-45
-9.64856e-40
-4.05144e-34
-2.7443e-28
-8.02564e-51
-2.452e-45
-9.64849e-40
-4.05142e-34
-2.74429e-28
-8.02552e-51
-2.45197e-45
-9.64839e-40
-4.05139e-34
-2.74428e-28
-8.02531e-51
-2.45191e-45
-9.6482e-40
-4.05134e-34
-2.74426e-28
-8.02529e-51
-2.45188e-45
-9.64804e-40
-4.05129e-34
-2.74423e-28
-8.02496e-51
-2.45178e-45
-9.6477e-40
-4.05119e-34
-2.7442e-28
-8.02915e-51
-2.45267e-45
-9.64952e-40
-4.05152e-34
-2.7442e-28
-8.02975e-51
-2.45276e-45
-9.64953e-40
-4.05148e-34
-2.74416e-28
-8.19826e-51
-2.49513e-45
-9.7702e-40
-4.08402e-34
-2.75283e-28
-6.2707e-48
-1.92184e-42
-7.51916e-37
-3.13046e-31
-2.10139e-25
-6.14147e-48
-1.88897e-42
-7.42552e-37
-3.10542e-31
-2.09489e-25
-6.14104e-48
-1.88891e-42
-7.42552e-37
-3.10545e-31
-2.09492e-25
-6.1379e-48
-1.88824e-42
-7.42416e-37
-3.10522e-31
-2.09493e-25
-6.13816e-48
-1.88831e-42
-7.42443e-37
-3.10529e-31
-2.09496e-25
-6.13817e-48
-1.88833e-42
-7.42455e-37
-3.10534e-31
-2.09498e-25
-6.13834e-48
-1.88838e-42
-7.42469e-37
-3.10537e-31
-2.095e-25
-6.13843e-48
-1.88841e-42
-7.42477e-37
-3.1054e-31
-2.095e-25
-6.1385e-48
-1.88842e-42
-7.42483e-37
-3.10541e-31
-2.09501e-25
-6.13853e-48
-1.88843e-42
-7.42485e-37
-3.10542e-31
-2.09501e-25
-6.13853e-48
-1.88843e-42
-7.42485e-37
-3.10542e-31
-2.09501e-25
-6.1385e-48
-1.88842e-42
-7.42483e-37
-3.10541e-31
-2.09501e-25
-6.13843e-48
-1.88841e-42
-7.42477e-37
-3.1054e-31
-2.095e-25
-6.13834e-48
-1.88838e-42
-7.42469e-37
-3.10537e-31
-2.095e-25
-6.13817e-48
-1.88833e-42
-7.42455e-37
-3.10534e-31
-2.09498e-25
-6.13816e-48
-1.88831e-42
-7.42443e-37
-3.10529e-31
-2.09496e-25
-6.1379e-48
-1.88824e-42
-7.42416e-37
-3.10522e-31
-2.09493e-25
-6.14104e-48
-1.88891e-42
-7.42552e-37
-3.10545e-31
-2.09492e-25
-6.14147e-48
-1.88897e-42
-7.42552e-37
-3.10542e-31
-2.09489e-25
-6.2707e-48
-1.92184e-42
-7.51916e-37
-3.13046e-31
-2.10139e-25
-4.35804e-45
-1.35041e-39
-5.28211e-34
-2.1868e-28
-1.45526e-22
-4.26879e-45
-1.32736e-39
-5.21621e-34
-2.1693e-28
-1.45086e-22
-4.26853e-45
-1.32733e-39
-5.21623e-34
-2.16933e-28
-1.45088e-22
-4.26643e-45
-1.32687e-39
-5.21531e-34
-2.16917e-28
-1.45089e-22
-4.26661e-45
-1.32693e-39
-5.2155e-34
-2.16923e-28
-1.45091e-22
-4.26662e-45
-1.32694e-39
-5.21559e-34
-2.16926e-28
-1.45093e-22
-4.26674e-45
-1.32697e-39
-5.21569e-34
-2.16928e-28
-1.45094e-22
-4.2668e-45
-1.32699e-39
-5.21574e-34
-2.1693e-28
-1.45094e-22
-4.26685e-45
-1.327e-39
-5.21578e-34
-2.16931e-28
-1.45095e-22
-4.26687e-45
-1.32701e-39
-5.2158e-34
-2.16931e-28
-1.45095e-22
-4.26687e-45
-1.32701e-39
-5.2158e-34
-2.16931e-28
-1.45095e-22
-4.26685e-45
-1.327e-39
-5.21578e-34
-2.16931e-28
-1.45095e-22
-4.2668e-45
-1.32699e-39
-5.21574e-34
-2.1693e-28
-1.45094e-22
-4.26674e-45
-1.32697e-39
-5.21569e-34
-2.16928e-28
-1.45094e-22
-4.26662e-45
-1.32694e-39
-5.21559e-34
-2.16926e-28
-1.45093e-22
-4.26661e-45
-1.32693e-39
-5.2155e-34
-2.16923e-28
-1.45091e-22
-4.26643e-45
-1.32687e-39
-5.21531e-34
-2.16917e-28
-1.45089e-22
-4.26853e-45
-1.32733e-39
-5.21623e-34
-2.16933e-28
-1.45088e-22
-4.2688e-45
-1.32736e-39
-5.21621e-34
-2.1693e-28
-1.45086e-22
-4.35804e-45
-1.35041e-39
-5.28211e-34
-2.1868e-28
-1.45526e-22
-2.68098e-42
-8.44649e-37
-3.31465e-31
-1.36714e-25
-9.00331e-20
-2.62655e-42
-8.30297e-37
-3.27326e-31
-1.35618e-25
-8.97666e-20
-2.62641e-42
-8.30279e-37
-3.27329e-31
-1.35621e-25
-8.97685e-20
-2.62518e-42
-8.30008e-37
-3.27274e-31
-1.35611e-25
-8.97694e-20
-2.62529e-42
-8.30042e-37
-3.27286e-31
-1.35615e-25
-8.97707e-20
-2.6253e-42
-8.30051e-37
-3.27292e-31
-1.35617e-25
-8.97717e-20
-2.62537e-42
-8.30071e-37
-3.27298e-31
-1.35618e-25
-8.97723e-20
-2.62541e-42
-8.30082e-37
-3.27302e-31
-1.35619e-25
-8.97727e-20
-2.62544e-42
-8.3009e-37
-3.27304e-31
-1.3562e-25
-8.97729e-20
-2.62545e-42
-8.30094e-37
-3.27305e-31
-1.3562e-25
-8.9773e-20
-2.62545e-42
-8.30094e-37
-3.27305e-31
-1.3562e-25
-8.9773e-20
-2.62544e-42
-8.3009e-37
-3.27304e-31
-1.3562e-25
-8.97729e-20
-2.62541e-42
-8.30082e-37
-3.27302e-31
-1.35619e-25
-8.97727e-20
-2.62537e-42
-8.30071e-37
-3.27298e-31
-1.35618e-25
-8.97723e-20
-2.6253e-42
-8.30051e-37
-3.27292e-31
-1.35617e-25
-8.97717e-20
-2.62529e-42
-8.30042e-37
-3.27286e-31
-1.35615e-25
-8.97707e-20
-2.62518e-42
-8.30008e-37
-3.27274e-31
-1.35611e-25
-8.97694e-20
-2.62641e-42
-8.30279e-37
-3.27329e-31
-1.35621e-25
-8.97685e-20
-2.62655e-42
-8.30297e-37
-3.27326e-31
-1.35618e-25
-8.97666e-20
-2.68098e-42
-8.44649e-37
-3.31465e-31
-1.36714e-25
-9.00331e-20
-1.42816e-39
-4.60788e-34
-1.8235e-28
-7.51594e-23
-4.88948e-17
-1.39952e-39
-4.53022e-34
-1.80077e-28
-7.45551e-23
-4.87525e-17
-1.39946e-39
-4.53014e-34
-1.80079e-28
-7.45564e-23
-4.87536e-17
-1.39884e-39
-4.52874e-34
-1.8005e-28
-7.45516e-23
-4.87543e-17
-1.3989e-39
-4.52893e-34
-1.80057e-28
-7.45535e-23
-4.8755e-17
-1.3989e-39
-4.52898e-34
-1.8006e-28
-7.45546e-23
-4.87555e-17
-1.39894e-39
-4.52909e-34
-1.80063e-28
-7.45555e-23
-4.87558e-17
-1.39896e-39
-4.52915e-34
-1.80065e-28
-7.45561e-23
-4.8756e-17
-1.39898e-39
-4.52919e-34
-1.80067e-28
-7.45565e-23
-4.87562e-17
-1.39898e-39
-4.52921e-34
-1.80067e-28
-7.45566e-23
-4.87562e-17
-1.39898e-39
-4.52921e-34
-1.80067e-28
-7.45566e-23
-4.87562e-17
-1.39898e-39
-4.52919e-34
-1.80067e-28
-7.45565e-23
-4.87562e-17
-1.39896e-39
-4.52915e-34
-1.80065e-28
-7.45561e-23
-4.8756e-17
-1.39894e-39
-4.52909e-34
-1.80063e-28
-7.45555e-23
-4.87558e-17
-1.3989e-39
-4.52898e-34
-1.8006e-28
-7.45546e-23
-4.87555e-17
-1.3989e-39
-4.52893e-34
-1.80057e-28
-7.45535e-23
-4.8755e-17
-1.39884e-39
-4.52874e-34
-1.8005e-28
-7.45516e-23
-4.87543e-17
-1.39946e-39
-4.53014e-34
-1.80079e-28
-7.45564e-23
-4.87536e-17
-1.39952e-39
-4.53022e-34
-1.80077e-28
-7.45551e-23
-4.87525e-17
-1.42816e-39
-4.60788e-34
-1.8235e-28
-7.51594e-23
-4.88948e-17
-6.38147e-37
-2.12922e-31
-8.56454e-26
-3.54673e-20
-2.27706e-14
-6.25564e-37
-2.09381e-31
-8.4583e-26
-3.51808e-20
-2.27049e-14
-6.25539e-37
-2.09378e-31
-8.45841e-26
-3.51815e-20
-2.27054e-14
-6.25279e-37
-2.09317e-31
-8.45714e-26
-3.51793e-20
-2.27057e-14
-6.25306e-37
-2.09326e-31
-8.45745e-26
-3.51802e-20
-2.2706e-14
-6.25309e-37
-2.09328e-31
-8.4576e-26
-3.51807e-20
-2.27063e-14
-6.25326e-37
-2.09333e-31
-8.45777e-26
-3.51812e-20
-2.27065e-14
-6.25335e-37
-2.09336e-31
-8.45786e-26
-3.51815e-20
-2.27066e-14
-6.25342e-37
-2.09338e-31
-8.45792e-26
-3.51816e-20
-2.27066e-14
-6.25345e-37
-2.09339e-31
-8.45795e-26
-3.51817e-20
-2.27066e-14
-6.25345e-37
-2.09339e-31
-8.45795e-26
-3.51817e-20
-2.27066e-14
-6.25342e-37
-2.09338e-31
-8.45792e-26
-3.51816e-20
-2.27066e-14
-6.25335e-37
-2.09336e-31
-8.45786e-26
-3.51815e-20
-2.27066e-14
-6.25326e-37
-2.09333e-31
-8.45777e-26
-3.51812e-20
-2.27065e-14
-6.25309e-37
-2.09328e-31
-8.4576e-26
-3.51807e-20
-2.27063e-14
-6.25306e-37
-2.09326e-31
-8.45745e-26
-3.51802e-20
-2.2706e-14
-6.25279e-37
-2.09317e-31
-8.45714e-26
-3.51793e-20
-2.27057e-14
-6.25539e-37
-2.09378e-31
-8.45841e-26
-3.51815e-20
-2.27054e-14
-6.25564e-37
-2.09381e-31
-8.4583e-26
-3.51809e-20
-2.27049e-14
-6.38147e-37
-2.12922e-31
-8.56454e-26
-3.54673e-20
-2.27706e-14
-2.27161e-34
-7.9472e-29
-3.29105e-23
-1.38411e-17
-8.78559e-12
-2.22786e-34
-7.81777e-29
-3.25069e-23
-1.37288e-17
-8.75989e-12
-2.22779e-34
-7.8177e-29
-3.25073e-23
-1.37291e-17
-8.76008e-12
-2.22693e-34
-7.81557e-29
-3.25027e-23
-1.37282e-17
-8.76016e-12
-2.22702e-34
-7.8159e-29
-3.25039e-23
-1.37286e-17
-8.76029e-12
-2.22704e-34
-7.816e-29
-3.25045e-23
-1.37288e-17
-8.76039e-12
-2.2271e-34
-7.81619e-29
-3.25051e-23
-1.37289e-17
-8.76045e-12
-2.22713e-34
-7.81629e-29
-3.25055e-23
-1.3729e-17
-8.76049e-12
-2.22716e-34
-7.81636e-29
-3.25057e-23
-1.37291e-17
-8.76052e-12
-2.22717e-34
-7.81639e-29
-3.25058e-23
-1.37291e-17
-8.76053e-12
-2.22717e-34
-7.81639e-29
-3.25058e-23
-1.37291e-17
-8.76053e-12
-2.22716e-34
-7.81636e-29
-3.25057e-23
-1.37291e-17
-8.76052e-12
-2.22713e-34
-7.81629e-29
-3.25055e-23
-1.3729e-17
-8.76049e-12
-2.2271e-34
-7.81619e-29
-3.25051e-23
-1.37289e-17
-8.76045e-12
-2.22704e-34
-7.816e-29
-3.25045e-23
-1.37288e-17
-8.76039e-12
-2.22702e-34
-7.8159e-29
-3.25039e-23
-1.37286e-17
-8.76029e-12
-2.22693e-34
-7.81557e-29
-3.25027e-23
-1.37282e-17
-8.76016e-12
-2.22779e-34
-7.8177e-29
-3.25073e-23
-1.37291e-17
-8.76008e-12
-2.22786e-34
-7.81777e-29
-3.25069e-23
-1.37288e-17
-8.75989e-12
-2.27161e-34
-7.9472e-29
-3.29105e-23
-1.38411e-17
-8.78559e-12
-5.83928e-32
-2.18576e-26
-9.52246e-21
-4.16129e-15
-2.64101e-09
-5.73052e-32
-2.1513e-26
-9.40819e-21
-4.1274e-15
-2.63286e-09
-5.73037e-32
-2.15129e-26
-9.40832e-21
-4.12746e-15
-2.63291e-09
-5.72833e-32
-2.15075e-26
-9.40701e-21
-4.12716e-15
-2.63289e-09
-5.72858e-32
-2.15084e-26
-9.40736e-21
-4.12726e-15
-2.63293e-09
-5.72863e-32
-2.15086e-26
-9.40752e-21
-4.12733e-15
-2.63296e-09
-5.72878e-32
-2.15092e-26
-9.4077e-21
-4.12738e-15
-2.63298e-09
-5.72886e-32
-2.15094e-26
-9.40781e-21
-4.12741e-15
-2.63299e-09
-5.72892e-32
-2.15096e-26
-9.40788e-21
-4.12743e-15
-2.633e-09
-5.72895e-32
-2.15097e-26
-9.40791e-21
-4.12744e-15
-2.633e-09
-5.72895e-32
-2.15097e-26
-9.40791e-21
-4.12744e-15
-2.633e-09
-5.72892e-32
-2.15096e-26
-9.40788e-21
-4.12743e-15
-2.633e-09
-5.72886e-32
-2.15094e-26
-9.40781e-21
-4.12741e-15
-2.63299e-09
-5.72878e-32
-2.15092e-26
-9.4077e-21
-4.12738e-15
-2.63298e-09
-5.72863e-32
-2.15086e-26
-9.40752e-21
-4.12733e-15
-2.63296e-09
-5.72858e-32
-2.15084e-26
-9.40736e-21
-4.12726e-15
-2.63293e-09
-5.72833e-32
-2.15075e-26
-9.40701e-21
-4.12716e-15
-2.63289e-09
-5.73037e-32
-2.15129e-26
-9.40832e-21
-4.12746e-15
-2.63291e-09
-5.73052e-32
-2.1513e-26
-9.40819e-21
-4.1274e-15
-2.63286e-09
-5.83928e-32
-2.18576e-26
-9.52246e-21
-4.16129e-15
-2.64101e-09
-8.41043e-30
-3.46822e-24
-1.64969e-18
-7.88046e-13
-5.23859e-07
-8.26106e-30
-3.41619e-24
-1.63066e-18
-7.81644e-13
-5.22019e-07
-8.26088e-30
-3.41617e-24
-1.63067e-18
-7.81646e-13
-5.2202e-07
-8.25821e-30
-3.41537e-24
-1.63044e-18
-7.81572e-13
-5.21996e-07
-8.25857e-30
-3.41551e-24
-1.6305e-18
-7.81592e-13
-5.22005e-07
-8.25864e-30
-3.41555e-24
-1.63053e-18
-7.81603e-13
-5.2201e-07
-8.25886e-30
-3.41563e-24
-1.63056e-18
-7.81614e-13
-5.22014e-07
-8.25897e-30
-3.41567e-24
-1.63058e-18
-7.8162e-13
-5.22017e-07
-8.25906e-30
-3.41571e-24
-1.63059e-18
-7.81624e-13
-5.22018e-07
-8.25909e-30
-3.41572e-24
-1.63059e-18
-7.81626e-13
-5.22019e-07
-8.25909e-30
-3.41572e-24
-1.63059e-18
-7.81626e-13
-5.22019e-07
-8.25906e-30
-3.41571e-24
-1.63059e-18
-7.81624e-13
-5.22018e-07
-8.25897e-30
-3.41567e-24
-1.63058e-18
-7.8162e-13
-5.22017e-07
-8.25886e-30
-3.41563e-24
-1.63056e-18
-7.81614e-13
-5.22014e-07
-8.25864e-30
-3.41555e-24
-1.63053e-18
-7.81603e-13
-5.2201e-07
-8.25857e-30
-3.41551e-24
-1.6305e-18
-7.81592e-13
-5.22005e-07
-8.25821e-30
-3.41537e-24
-1.63044e-18
-7.81572e-13
-5.21996e-07
-8.26088e-30
-3.41617e-24
-1.63067e-18
-7.81646e-13
-5.2202e-07
-8.26106e-30
-3.41619e-24
-1.63066e-18
-7.81644e-13
-5.22019e-07
-8.41043e-30
-3.46822e-24
-1.64969e-18
-7.88046e-13
-5.23859e-07
-4.10198e-29
-1.36521e-23
-4.83559e-18
-1.52312e-12
-4.87464e-07
-4.03586e-29
-1.34643e-23
-4.78454e-18
-1.51193e-12
-4.86126e-07
-4.03577e-29
-1.34641e-23
-4.78457e-18
-1.51193e-12
-4.86126e-07
-4.03458e-29
-1.34612e-23
-4.78393e-18
-1.51179e-12
-4.86104e-07
-4.03472e-29
-1.34616e-23
-4.78408e-18
-1.51182e-12
-4.8611e-07
-4.03474e-29
-1.34618e-23
-4.78414e-18
-1.51184e-12
-4.86112e-07
-4.03483e-29
-1.3462e-23
-4.78422e-18
-1.51186e-12
-4.86115e-07
-4.03488e-29
-1.34622e-23
-4.78426e-18
-1.51187e-12
-4.86117e-07
-4.03492e-29
-1.34623e-23
-4.78429e-18
-1.51187e-12
-4.86118e-07
-4.03493e-29
-1.34623e-23
-4.7843e-18
-1.51187e-12
-4.86118e-07
-4.03493e-29
-1.34623e-23
-4.7843e-18
-1.51187e-12
-4.86118e-07
-4.03492e-29
-1.34623e-23
-4.78429e-18
-1.51187e-12
-4.86118e-07
-4.03488e-29
-1.34622e-23
-4.78426e-18
-1.51187e-12
-4.86117e-07
-4.03483e-29
-1.3462e-23
-4.78422e-18
-1.51186e-12
-4.86115e-07
-4.03474e-29
-1.34618e-23
-4.78414e-18
-1.51184e-12
-4.86112e-07
-4.03472e-29
-1.34616e-23
-4.78408e-18
-1.51182e-12
-4.8611e-07
-4.03458e-29
-1.34612e-23
-4.78393e-18
-1.51179e-12
-4.86104e-07
-4.03577e-29
-1.34641e-23
-4.78457e-18
-1.51193e-12
-4.86126e-07
-4.03586e-29
-1.34643e-23
-4.78454e-18
-1.51193e-12
-4.86126e-07
-4.10198e-29
-1.36521e-23
-4.83559e-18
-1.52312e-12
-4.87464e-07
-1.15577e-28
-3.27785e-23
-9.30063e-18
-2.18671e-12
-4.48875e-07
-1.13932e-28
-3.23757e-23
-9.213e-18
-2.17251e-12
-4.47985e-07
-1.13929e-28
-3.23754e-23
-9.21303e-18
-2.17251e-12
-4.47984e-07
-1.13899e-28
-3.23689e-23
-9.2119e-18
-2.17232e-12
-4.47964e-07
-1.13903e-28
-3.23698e-23
-9.21213e-18
-2.17235e-12
-4.47967e-07
-1.13903e-28
-3.237e-23
-9.21221e-18
-2.17237e-12
-4.47968e-07
-1.13905e-28
-3.23706e-23
-9.21234e-18
-2.17239e-12
-4.4797e-07
-1.13906e-28
-3.23709e-23
-9.21241e-18
-2.1724e-12
-4.47971e-07
-1.13907e-28
-3.23711e-23
-9.21245e-18
-2.17241e-12
-4.47971e-07
-1.13908e-28
-3.23712e-23
-9.21247e-18
-2.17241e-12
-4.47971e-07
-1.13908e-28
-3.23712e-23
-9.21247e-18
-2.17241e-12
-4.47971e-07
-1.13907e-28
-3.23711e-23
-9.21245e-18
-2.17241e-12
-4.47971e-07
-1.13906e-28
-3.23709e-23
-9.21241e-18
-2.1724e-12
-4.47971e-07
-1.13905e-28
-3.23706e-23
-9.21234e-18
-2.17239e-12
-4.4797e-07
-1.13903e-28
-3.237e-23
-9.21221e-18
-2.17237e-12
-4.47968e-07
-1.13903e-28
-3.23698e-23
-9.21213e-18
-2.17235e-12
-4.47967e-07
-1.13899e-28
-3.23689e-23
-9.2119e-18
-2.17232e-12
-4.47964e-07
-1.13929e-28
-3.23754e-23
-9.21303e-18
-2.17251e-12
-4.47984e-07
-1.13932e-28
-3.23757e-23
-9.213e-18
-2.17251e-12
-4.47985e-07
-1.15577e-28
-3.27785e-23
-9.30063e-18
-2.18671e-12
-4.48875e-07
-2.40217e-28
-6.05588e-23
-1.45088e-17
-2.74729e-12
-4.07973e-07
-2.37303e-28
-5.99185e-23
-1.43916e-17
-2.73214e-12
-4.07493e-07
-2.37298e-28
-5.99178e-23
-1.43916e-17
-2.73213e-12
-4.0749e-07
-2.37246e-28
-5.99074e-23
-1.439e-17
-2.73191e-12
-4.07472e-07
-2.37251e-28
-5.99088e-23
-1.43903e-17
-2.73195e-12
-4.07473e-07
-2.37252e-28
-5.9909e-23
-1.43904e-17
-2.73196e-12
-4.07473e-07
-2.37255e-28
-5.99098e-23
-1.43905e-17
-2.73198e-12
-4.07474e-07
-2.37257e-28
-5.99103e-23
-1.43906e-17
-2.73199e-12
-4.07474e-07
-2.37259e-28
-5.99106e-23
-1.43907e-17
-2.732e-12
-4.07474e-07
-2.37259e-28
-5.99107e-23
-1.43907e-17
-2.732e-12
-4.07474e-07
-2.37259e-28
-5.99107e-23
-1.43907e-17
-2.732e-12
-4.07474e-07
-2.37259e-28
-5.99106e-23
-1.43907e-17
-2.732e-12
-4.07474e-07
-2.37257e-28
-5.99103e-23
-1.43906e-17
-2.73199e-12
-4.07474e-07
-2.37255e-28
-5.99098e-23
-1.43905e-17
-2.73198e-12
-4.07474e-07
-2.37252e-28
-5.9909e-23
-1.43904e-17
-2.73196e-12
-4.07473e-07
-2.37251e-28
-5.99088e-23
-1.43903e-17
-2.73195e-12
-4.07473e-07
-2.37246e-28
-5.99074e-23
-1.439e-17
-2.73191e-12
-4.07472e-07
-2.37298e-28
-5.99178e-23
-1.43916e-17
-2.73213e-12
-4.0749e-07
-2.37303e-28
-5.99185e-23
-1.43916e-17
-2.73214e-12
-4.07493e-07
-2.40217e-28
-6.05588e-23
-1.45088e-17
-2.74729e-12
-4.07973e-07
-4.03404e-28
-9.3347e-23
-1.96513e-17
-3.16601e-12
-3.64732e-07
-3.99431e-28
-9.25417e-23
-1.95235e-17
-3.15225e-12
-3.64627e-07
-3.99423e-28
-9.25406e-23
-1.95234e-17
-3.15223e-12
-3.64624e-07
-3.99352e-28
-9.25273e-23
-1.95216e-17
-3.152e-12
-3.64607e-07
-3.99359e-28
-9.25288e-23
-1.95219e-17
-3.15203e-12
-3.64607e-07
-3.99359e-28
-9.2529e-23
-1.9522e-17
-3.15203e-12
-3.64606e-07
-3.99364e-28
-9.253e-23
-1.95221e-17
-3.15205e-12
-3.64606e-07
-3.99366e-28
-9.25305e-23
-1.95222e-17
-3.15206e-12
-3.64606e-07
-3.99368e-28
-9.25309e-23
-1.95223e-17
-3.15206e-12
-3.64606e-07
-3.99369e-28
-9.25311e-23
-1.95223e-17
-3.15207e-12
-3.64606e-07
-3.99369e-28
-9.25311e-23
-1.95223e-17
-3.15207e-12
-3.64606e-07
-3.99368e-28
-9.25309e-23
-1.95223e-17
-3.15206e-12
-3.64606e-07
-3.99366e-28
-9.25305e-23
-1.95222e-17
-3.15206e-12
-3.64606e-07
-3.99364e-28
-9.253e-23
-1.95221e-17
-3.15205e-12
-3.64606e-07
-3.99359e-28
-9.2529e-23
-1.9522e-17
-3.15203e-12
-3.64606e-07
-3.99359e-28
-9.25288e-23
-1.95219e-17
-3.15203e-12
-3.64607e-07
-3.99352e-28
-9.25273e-23
-1.95216e-17
-3.152e-12
-3.64607e-07
-3.99423e-28
-9.25406e-23
-1.95234e-17
-3.15223e-12
-3.64624e-07
-3.99431e-28
-9.25417e-23
-1.95235e-17
-3.15225e-12
-3.64627e-07
-4.03404e-28
-9.3347e-23
-1.96513e-17
-3.16601e-12
-3.64732e-07
-5.73321e-28
-1.24745e-22
-2.37946e-17
-3.40421e-12
-3.19392e-07
-5.69065e-28
-1.23937e-22
-2.36825e-17
-3.39413e-12
-3.19629e-07
-5.69055e-28
-1.23935e-22
-2.36824e-17
-3.39411e-12
-3.19624e-07
-5.68976e-28
-1.23921e-22
-2.36807e-17
-3.3939e-12
-3.19609e-07
-5.68984e-28
-1.23923e-22
-2.36809e-17
-3.39391e-12
-3.19608e-07
-5.68984e-28
-1.23923e-22
-2.36809e-17
-3.39391e-12
-3.19606e-07
-5.68989e-28
-1.23924e-22
-2.36811e-17
-3.39392e-12
-3.19606e-07
-5.68991e-28
-1.23924e-22
-2.36812e-17
-3.39393e-12
-3.19605e-07
-5.68993e-28
-1.23925e-22
-2.36812e-17
-3.39393e-12
-3.19605e-07
-5.68994e-28
-1.23925e-22
-2.36812e-17
-3.39393e-12
-3.19605e-07
-5.68994e-28
-1.23925e-22
-2.36812e-17
-3.39393e-12
-3.19605e-07
-5.68993e-28
-1.23925e-22
-2.36812e-17
-3.39393e-12
-3.19605e-07
-5.68991e-28
-1.23924e-22
-2.36812e-17
-3.39393e-12
-3.19605e-07
-5.68989e-28
-1.23924e-22
-2.36811e-17
-3.39392e-12
-3.19606e-07
-5.68984e-28
-1.23923e-22
-2.36809e-17
-3.39391e-12
-3.19606e-07
-5.68984e-28
-1.23923e-22
-2.36809e-17
-3.39391e-12
-3.19608e-07
-5.68976e-28
-1.23921e-22
-2.36807e-17
-3.3939e-12
-3.19609e-07
-5.69055e-28
-1.23935e-22
-2.36824e-17
-3.39411e-12
-3.19624e-07
-5.69065e-28
-1.23937e-22
-2.36825e-17
-3.39413e-12
-3.19629e-07
-5.73321e-28
-1.24745e-22
-2.37946e-17
-3.40421e-12
-3.19392e-07
-7.09224e-28
-1.47748e-22
-2.61477e-17
-3.43685e-12
-2.72727e-07
-7.05761e-28
-1.47134e-22
-2.6077e-17
-3.43225e-12
-2.73254e-07
-7.05751e-28
-1.47132e-22
-2.60769e-17
-3.43221e-12
-2.73249e-07
-7.05681e-28
-1.4712e-22
-2.60754e-17
-3.43204e-12
-2.73236e-07
-7.05687e-28
-1.47121e-22
-2.60755e-17
-3.43204e-12
-2.73234e-07
-7.05686e-28
-1.47121e-22
-2.60755e-17
-3.43203e-12
-2.73232e-07
-7.05691e-28
-1.47122e-22
-2.60756e-17
-3.43204e-12
-2.73231e-07
-7.05693e-28
-1.47122e-22
-2.60757e-17
-3.43204e-12
-2.73231e-07
-7.05694e-28
-1.47122e-22
-2.60757e-17
-3.43204e-12
-2.7323e-07
-7.05695e-28
-1.47123e-22
-2.60757e-17
-3.43204e-12
-2.7323e-07
-7.05695e-28
-1.47123e-22
-2.60757e-17
-3.43204e-12
-2.7323e-07
-7.05694e-28
-1.47122e-22
-2.60757e-17
-3.43204e-12
-2.7323e-07
-7.05693e-28
-1.47122e-22
-2.60757e-17
-3.43204e-12
-2.73231e-07
-7.05691e-28
-1.47122e-22
-2.60756e-17
-3.43204e-12
-2.73231e-07
-7.05686e-28
-1.47121e-22
-2.60755e-17
-3.43203e-12
-2.73232e-07
-7.05687e-28
-1.47121e-22
-2.60755e-17
-3.43204e-12
-2.73234e-07
-7.05681e-28
-1.4712e-22
-2.60754e-17
-3.43204e-12
-2.73236e-07
-7.05751e-28
-1.47132e-22
-2.60769e-17
-3.43221e-12
-2.73249e-07
-7.05761e-28
-1.47134e-22
-2.6077e-17
-3.43225e-12
-2.73254e-07
-7.09224e-28
-1.47748e-22
-2.61477e-17
-3.43685e-12
-2.72727e-07
-7.78427e-28
-1.57387e-22
-2.63214e-17
-3.26559e-12
-2.261e-07
-7.76678e-28
-1.57119e-22
-2.63078e-17
-3.26723e-12
-2.2685e-07
-7.76669e-28
-1.57118e-22
-2.63075e-17
-3.26719e-12
-2.26844e-07
-7.76621e-28
-1.57109e-22
-2.63065e-17
-3.26707e-12
-2.26833e-07
-7.76623e-28
-1.5711e-22
-2.63065e-17
-3.26706e-12
-2.2683e-07
-7.76623e-28
-1.5711e-22
-2.63065e-17
-3.26705e-12
-2.26828e-07
-7.76625e-28
-1.5711e-22
-2.63065e-17
-3.26705e-12
-2.26827e-07
-7.76626e-28
-1.5711e-22
-2.63065e-17
-3.26704e-12
-2.26827e-07
-7.76627e-28
-1.5711e-22
-2.63065e-17
-3.26704e-12
-2.26826e-07
-7.76627e-28
-1.5711e-22
-2.63065e-17
-3.26704e-12
-2.26826e-07
-7.76627e-28
-1.5711e-22
-2.63065e-17
-3.26704e-12
-2.26826e-07
-7.76627e-28
-1.5711e-22
-2.63065e-17
-3.26704e-12
-2.26826e-07
-7.76626e-28
-1.5711e-22
-2.63065e-17
-3.26704e-12
-2.26827e-07
-7.76625e-28
-1.5711e-22
-2.63065e-17
-3.26705e-12
-2.26827e-07
-7.76623e-28
-1.5711e-22
-2.63065e-17
-3.26705e-12
-2.26828e-07
-7.76623e-28
-1.5711e-22
-2.63065e-17
-3.26706e-12
-2.2683e-07
-7.76621e-28
-1.57109e-22
-2.63065e-17
-3.26707e-12
-2.26833e-07
-7.76669e-28
-1.57118e-22
-2.63075e-17
-3.26719e-12
-2.26844e-07
-7.76678e-28
-1.57119e-22
-2.63078e-17
-3.26723e-12
-2.2685e-07
-7.78427e-28
-1.57387e-22
-2.63214e-17
-3.26559e-12
-2.261e-07
-7.6885e-28
-1.5243e-22
-2.44384e-17
-2.92374e-12
-1.81287e-07
-7.69208e-28
-1.52563e-22
-2.44827e-17
-2.93118e-12
-1.82175e-07
-7.69201e-28
-1.52561e-22
-2.44824e-17
-2.93113e-12
-1.82169e-07
-7.6918e-28
-1.52557e-22
-2.44819e-17
-2.93106e-12
-1.82159e-07
-7.69179e-28
-1.52557e-22
-2.44818e-17
-2.93104e-12
-1.82156e-07
-7.69177e-28
-1.52557e-22
-2.44817e-17
-2.93102e-12
-1.82155e-07
-7.69177e-28
-1.52557e-22
-2.44816e-17
-2.93101e-12
-1.82153e-07
-7.69177e-28
-1.52556e-22
-2.44816e-17
-2.93101e-12
-1.82153e-07
-7.69177e-28
-1.52556e-22
-2.44816e-17
-2.93101e-12
-1.82152e-07
-7.69177e-28
-1.52556e-22
-2.44816e-17
-2.931e-12
-1.82152e-07
-7.69177e-28
-1.52556e-22
-2.44816e-17
-2.931e-12
-1.82152e-07
-7.69177e-28
-1.52556e-22
-2.44816e-17
-2.93101e-12
-1.82152e-07
-7.69177e-28
-1.52556e-22
-2.44816e-17
-2.93101e-12
-1.82153e-07
-7.69177e-28
-1.52557e-22
-2.44816e-17
-2.93101e-12
-1.82153e-07
-7.69177e-28
-1.52557e-22
-2.44817e-17
-2.93102e-12
-1.82155e-07
-7.69179e-28
-1.52557e-22
-2.44818e-17
-2.93104e-12
-1.82156e-07
-7.6918e-28
-1.52557e-22
-2.44819e-17
-2.93106e-12
-1.82159e-07
-7.69201e-28
-1.52561e-22
-2.44824e-17
-2.93113e-12
-1.82169e-07
-7.69208e-28
-1.52563e-22
-2.44827e-17
-2.93118e-12
-1.82175e-07
-7.6885e-28
-1.5243e-22
-2.44384e-17
-2.92374e-12
-1.81287e-07
-6.90936e-28
-1.35386e-22
-2.10466e-17
-2.46955e-12
-1.40125e-07
-6.93177e-28
-1.35864e-22
-2.11363e-17
-2.48127e-12
-1.4106e-07
-6.93172e-28
-1.35862e-22
-2.1136e-17
-2.48123e-12
-1.41055e-07
-6.93175e-28
-1.35862e-22
-2.11358e-17
-2.48119e-12
-1.41046e-07
-6.9317e-28
-1.35861e-22
-2.11356e-17
-2.48116e-12
-1.41044e-07
-6.93169e-28
-1.35861e-22
-2.11355e-17
-2.48115e-12
-1.41042e-07
-6.93167e-28
-1.3586e-22
-2.11354e-17
-2.48114e-12
-1.41041e-07
-6.93165e-28
-1.3586e-22
-2.11354e-17
-2.48113e-12
-1.4104e-07
-6.93164e-28
-1.3586e-22
-2.11353e-17
-2.48112e-12
-1.4104e-07
-6.93164e-28
-1.3586e-22
-2.11353e-17
-2.48112e-12
-1.41039e-07
-6.93164e-28
-1.3586e-22
-2.11353e-17
-2.48112e-12
-1.41039e-07
-6.93164e-28
-1.3586e-22
-2.11353e-17
-2.48112e-12
-1.4104e-07
-6.93165e-28
-1.3586e-22
-2.11354e-17
-2.48113e-12
-1.4104e-07
-6.93167e-28
-1.3586e-22
-2.11354e-17
-2.48114e-12
-1.41041e-07
-6.93169e-28
-1.35861e-22
-2.11355e-17
-2.48115e-12
-1.41042e-07
-6.9317e-28
-1.35861e-22
-2.11356e-17
-2.48116e-12
-1.41044e-07
-6.93175e-28
-1.35862e-22
-2.11358e-17
-2.48119e-12
-1.41046e-07
-6.93172e-28
-1.35862e-22
-2.1136e-17
-2.48123e-12
-1.41055e-07
-6.93177e-28
-1.35863e-22
-2.11363e-17
-2.48127e-12
-1.4106e-07
-6.90936e-28
-1.35386e-22
-2.10466e-17
-2.46955e-12
-1.40125e-07
-5.70004e-28
-1.11068e-22
-1.68969e-17
-1.97091e-12
-1.04132e-07
-5.73467e-28
-1.11764e-22
-1.70119e-17
-1.98487e-12
-1.0503e-07
-5.73464e-28
-1.11763e-22
-1.70117e-17
-1.98483e-12
-1.05025e-07
-5.73481e-28
-1.11765e-22
-1.70117e-17
-1.98482e-12
-1.05018e-07
-5.73474e-28
-1.11764e-22
-1.70115e-17
-1.98479e-12
-1.05016e-07
-5.73473e-28
-1.11763e-22
-1.70114e-17
-1.98477e-12
-1.05014e-07
-5.73469e-28
-1.11763e-22
-1.70112e-17
-1.98476e-12
-1.05013e-07
-5.73467e-28
-1.11762e-22
-1.70112e-17
-1.98475e-12
-1.05013e-07
-5.73466e-28
-1.11762e-22
-1.70111e-17
-1.98474e-12
-1.05012e-07
-5.73465e-28
-1.11762e-22
-1.70111e-17
-1.98474e-12
-1.05012e-07
-5.73465e-28
-1.11762e-22
-1.70111e-17
-1.98474e-12
-1.05012e-07
-5.73466e-28
-1.11762e-22
-1.70111e-17
-1.98474e-12
-1.05012e-07
-5.73467e-28
-1.11762e-22
-1.70112e-17
-1.98475e-12
-1.05013e-07
-5.73469e-28
-1.11763e-22
-1.70112e-17
-1.98476e-12
-1.05013e-07
-5.73473e-28
-1.11763e-22
-1.70114e-17
-1.98477e-12
-1.05014e-07
-5.73474e-28
-1.11764e-22
-1.70115e-17
-1.98479e-12
-1.05016e-07
-5.73481e-28
-1.11765e-22
-1.70117e-17
-1.98482e-12
-1.05018e-07
-5.73464e-28
-1.11763e-22
-1.70117e-17
-1.98483e-12
-1.05025e-07
-5.73467e-28
-1.11764e-22
-1.70119e-17
-1.98486e-12
-1.0503e-07
-5.70004e-28
-1.11068e-22
-1.68969e-17
-1.97091e-12
-1.04132e-07
-4.52042e-25
-2.60837e-25
3.56331e-26
4.01751e-26
4.15948e-26
4.16165e-26
4.16236e-26
4.16239e-26
4.16249e-26
4.16252e-26
4.16253e-26
4.16255e-26
4.16273e-26
4.16327e-26
4.16975e-26
4.18139e-26
4.33953e-26
4.49657e-26
8.25743e-26
9.72489e-26
-4.52256e-25
-2.60999e-25
3.56187e-26
4.0173e-26
4.15947e-26
4.16164e-26
4.16235e-26
4.16237e-26
4.16237e-26
4.16237e-26
4.16237e-26
4.16237e-26
4.1625e-26
4.16303e-26
4.16953e-26
4.18121e-26
4.33986e-26
4.49724e-26
8.26939e-26
9.73929e-26
-4.52257e-25
-2.60999e-25
3.56186e-26
4.0173e-26
4.15947e-26
4.16164e-26
4.16236e-26
4.16237e-26
4.16238e-26
4.16238e-26
4.16238e-26
4.16238e-26
4.16253e-26
4.16307e-26
4.16957e-26
4.18125e-26
4.33991e-26
4.49729e-26
8.26955e-26
9.73946e-26
-4.5226e-25
-2.60998e-25
3.56186e-26
4.0173e-26
4.15947e-26
4.16164e-26
4.16236e-26
4.16237e-26
4.16238e-26
4.16238e-26
4.16238e-26
4.16239e-26
4.16258e-26
4.16312e-26
4.16962e-26
4.1813e-26
4.33997e-26
4.49736e-26
8.26972e-26
9.73963e-26
-4.52259e-25
-2.60998e-25
3.56186e-26
4.01729e-26
4.15947e-26
4.16164e-26
4.16236e-26
4.16237e-26
4.16238e-26
4.16238e-26
4.16238e-26
4.16239e-26
4.16258e-26
4.16312e-26
4.16962e-26
4.1813e-26
4.33997e-26
4.49736e-26
8.26973e-26
9.73963e-26
-4.52259e-25
-2.60998e-25
3.56186e-26
4.01729e-26
4.15947e-26
4.16164e-26
4.16236e-26
4.16237e-26
4.16238e-26
4.16238e-26
4.16238e-26
4.16239e-26
4.16258e-26
4.16313e-26
4.16962e-26
4.1813e-26
4.33997e-26
4.49736e-26
8.26973e-26
9.73963e-26
-4.52259e-25
-2.60998e-25
3.56186e-26
4.0173e-26
4.15947e-26
4.16164e-26
4.16236e-26
4.16237e-26
4.16238e-26
4.16238e-26
4.16238e-26
4.1624e-26
4.16258e-26
4.16313e-26
4.16963e-26
4.1813e-26
4.33997e-26
4.49736e-26
8.26973e-26
9.73964e-26
-4.52259e-25
-2.60998e-25
3.56186e-26
4.0173e-26
4.15947e-26
4.16164e-26
4.16236e-26
4.16237e-26
4.16238e-26
4.16238e-26
4.16238e-26
4.1624e-26
4.16258e-26
4.16313e-26
4.16963e-26
4.1813e-26
4.33997e-26
4.49736e-26
8.26973e-26
9.73964e-26
-4.52259e-25
-2.60998e-25
3.56186e-26
4.0173e-26
4.15947e-26
4.16164e-26
4.16236e-26
4.16237e-26
4.16238e-26
4.16238e-26
4.16238e-26
4.1624e-26
4.16258e-26
4.16313e-26
4.16963e-26
4.1813e-26
4.33997e-26
4.49736e-26
8.26973e-26
9.73964e-26
-4.52259e-25
-2.60998e-25
3.56186e-26
4.01729e-26
4.15947e-26
4.16164e-26
4.16236e-26
4.16237e-26
4.16238e-26
4.16238e-26
4.16238e-26
4.16239e-26
4.16258e-26
4.16313e-26
4.16962e-26
4.1813e-26
4.33997e-26
4.49736e-26
8.26973e-26
9.73963e-26
-4.52259e-25
-2.60998e-25
3.56186e-26
4.0173e-26
4.15947e-26
4.16164e-26
4.16236e-26
4.16237e-26
4.16238e-26
4.16238e-26
4.16238e-26
4.16239e-26
4.16258e-26
4.16313e-26
4.16962e-26
4.1813e-26
4.33997e-26
4.49736e-26
8.26973e-26
9.73963e-26
-4.52259e-25
-2.60998e-25
3.56186e-26
4.0173e-26
4.15947e-26
4.16164e-26
4.16236e-26
4.16237e-26
4.16238e-26
4.16238e-26
4.16238e-26
4.1624e-26
4.16258e-26
4.16313e-26
4.16963e-26
4.1813e-26
4.33997e-26
4.49736e-26
8.26973e-26
9.73964e-26
-4.52259e-25
-2.60998e-25
3.56186e-26
4.0173e-26
4.15947e-26
4.16164e-26
4.16236e-26
4.16237e-26
4.16238e-26
4.16238e-26
4.16238e-26
4.1624e-26
4.16258e-26
4.16313e-26
4.16963e-26
4.1813e-26
4.33997e-26
4.49736e-26
8.26973e-26
9.73964e-26
-4.52259e-25
-2.60998e-25
3.56186e-26
4.0173e-26
4.15947e-26
4.16164e-26
4.16236e-26
4.16237e-26
4.16238e-26
4.16238e-26
4.16238e-26
4.1624e-26
4.16258e-26
4.16313e-26
4.16963e-26
4.1813e-26
4.33997e-26
4.49736e-26
8.26973e-26
9.73964e-26
-4.52259e-25
-2.60998e-25
3.56186e-26
4.01729e-26
4.15947e-26
4.16164e-26
4.16236e-26
4.16237e-26
4.16238e-26
4.16238e-26
4.16238e-26
4.16239e-26
4.16258e-26
4.16313e-26
4.16962e-26