/*--------------------------------*- C++ -*----------------------------------*\
  =========                 |
  \\      /  F ield         | OpenFOAM: The Open Source CFD Toolbox
   \\    /   O peration     | Website:  https://openfoam.org
    \\  /    A nd           | Version:  8
     \\/     M anipulation  |
\*---------------------------------------------------------------------------*/
FoamFile
{
    version     2.0;
    format      ascii;
    class       volScalarField;
    location    "1.5";
    object      H2;
}
// * * * * * * * * * * * * * * * * * * * * * * * * * * * * * * * * * * * * * //

dimensions      [0 1 -1 0 0 0 0];

internalField   nonuniform List<scalar> 
180000
(
-9.45155e-31
-6.84064e-26
-4.47297e-21
-2.58159e-16
-1.29242e-11
-1.07405e-30
-7.72307e-26
-5.01157e-21
-2.86571e-16
-1.41768e-11
-1.07776e-30
-7.74844e-26
-5.027e-21
-2.8738e-16
-1.42121e-11
-1.09032e-30
-7.83529e-26
-5.08048e-21
-2.90223e-16
-1.43378e-11
-1.09079e-30
-7.8386e-26
-5.08255e-21
-2.90334e-16
-1.43427e-11
-1.09181e-30
-7.84601e-26
-5.08731e-21
-2.90598e-16
-1.43548e-11
-1.09185e-30
-7.84635e-26
-5.08757e-21
-2.90614e-16
-1.43556e-11
-1.09195e-30
-7.84717e-26
-5.08817e-21
-2.90653e-16
-1.43576e-11
-1.09194e-30
-7.84716e-26
-5.08819e-21
-2.90655e-16
-1.43577e-11
-1.09195e-30
-7.84724e-26
-5.08826e-21
-2.9066e-16
-1.43581e-11
-1.09195e-30
-7.84724e-26
-5.08826e-21
-2.9066e-16
-1.43581e-11
-1.09194e-30
-7.84716e-26
-5.08819e-21
-2.90655e-16
-1.43577e-11
-1.09195e-30
-7.84717e-26
-5.08817e-21
-2.90653e-16
-1.43576e-11
-1.09185e-30
-7.84635e-26
-5.08757e-21
-2.90614e-16
-1.43556e-11
-1.09181e-30
-7.84601e-26
-5.08731e-21
-2.90598e-16
-1.43548e-11
-1.09079e-30
-7.8386e-26
-5.08255e-21
-2.90334e-16
-1.43427e-11
-1.09032e-30
-7.83529e-26
-5.08048e-21
-2.90223e-16
-1.43378e-11
-1.07776e-30
-7.74844e-26
-5.027e-21
-2.8738e-16
-1.42121e-11
-1.07405e-30
-7.72307e-26
-5.01157e-21
-2.86571e-16
-1.41768e-11
-9.45155e-31
-6.84064e-26
-4.47297e-21
-2.58159e-16
-1.29242e-11
-9.45056e-31
-6.84037e-26
-4.47784e-21
-2.66221e-16
-2.61275e-11
-1.07394e-30
-7.72271e-26
-5.01644e-21
-2.94808e-16
-2.77757e-11
-1.07765e-30
-7.74808e-26
-5.03186e-21
-2.9562e-16
-2.78196e-11
-1.0902e-30
-7.83492e-26
-5.08532e-21
-2.9846e-16
-2.79665e-11
-1.09067e-30
-7.83822e-26
-5.08739e-21
-2.9857e-16
-2.79713e-11
-1.0917e-30
-7.84563e-26
-5.09214e-21
-2.98827e-16
-2.79781e-11
-1.09174e-30
-7.84597e-26
-5.09239e-21
-2.98842e-16
-2.79785e-11
-1.09184e-30
-7.8468e-26
-5.093e-21
-2.98877e-16
-2.79781e-11
-1.09183e-30
-7.84679e-26
-5.09301e-21
-2.98879e-16
-2.79781e-11
-1.09183e-30
-7.84686e-26
-5.09308e-21
-2.98884e-16
-2.79779e-11
-1.09183e-30
-7.84686e-26
-5.09308e-21
-2.98884e-16
-2.79779e-11
-1.09183e-30
-7.84679e-26
-5.09301e-21
-2.98879e-16
-2.79781e-11
-1.09184e-30
-7.8468e-26
-5.093e-21
-2.98877e-16
-2.79781e-11
-1.09174e-30
-7.84597e-26
-5.09239e-21
-2.98842e-16
-2.79785e-11
-1.0917e-30
-7.84563e-26
-5.09214e-21
-2.98827e-16
-2.79781e-11
-1.09067e-30
-7.83822e-26
-5.08739e-21
-2.9857e-16
-2.79713e-11
-1.0902e-30
-7.83492e-26
-5.08532e-21
-2.9846e-16
-2.79665e-11
-1.07765e-30
-7.74808e-26
-5.03186e-21
-2.9562e-16
-2.78196e-11
-1.07394e-30
-7.72271e-26
-5.01644e-21
-2.94808e-16
-2.77757e-11
-9.45056e-31
-6.84037e-26
-4.47784e-21
-2.66221e-16
-2.61275e-11
-9.45006e-31
-6.84436e-26
-4.5434e-21
-3.5457e-16
-1.56302e-10
-1.07388e-30
-7.72638e-26
-5.07933e-21
-3.80109e-16
-1.53563e-10
-1.07759e-30
-7.75175e-26
-5.09468e-21
-3.80845e-16
-1.53509e-10
-1.09014e-30
-7.83853e-26
-5.1477e-21
-3.83275e-16
-1.53204e-10
-1.09061e-30
-7.84184e-26
-5.14974e-21
-3.83365e-16
-1.53193e-10
-1.09163e-30
-7.84923e-26
-5.15436e-21
-3.83514e-16
-1.53112e-10
-1.09167e-30
-7.84957e-26
-5.15461e-21
-3.83523e-16
-1.53109e-10
-1.09177e-30
-7.85039e-26
-5.15517e-21
-3.83525e-16
-1.53084e-10
-1.09177e-30
-7.85038e-26
-5.15518e-21
-3.83525e-16
-1.53084e-10
-1.09177e-30
-7.85045e-26
-5.15524e-21
-3.83522e-16
-1.53079e-10
-1.09177e-30
-7.85045e-26
-5.15524e-21
-3.83522e-16
-1.53079e-10
-1.09177e-30
-7.85038e-26
-5.15518e-21
-3.83525e-16
-1.53084e-10
-1.09177e-30
-7.85039e-26
-5.15517e-21
-3.83525e-16
-1.53084e-10
-1.09167e-30
-7.84957e-26
-5.15461e-21
-3.83523e-16
-1.53109e-10
-1.09163e-30
-7.84923e-26
-5.15436e-21
-3.83514e-16
-1.53112e-10
-1.09061e-30
-7.84184e-26
-5.14974e-21
-3.83365e-16
-1.53193e-10
-1.09014e-30
-7.83853e-26
-5.1477e-21
-3.83275e-16
-1.53204e-10
-1.07759e-30
-7.75175e-26
-5.09468e-21
-3.80845e-16
-1.53509e-10
-1.07388e-30
-7.72638e-26
-5.07933e-21
-3.80109e-16
-1.53563e-10
-9.45006e-31
-6.84436e-26
-4.5434e-21
-3.5457e-16
-1.56302e-10
-9.45102e-31
-6.86419e-26
-4.78119e-21
-5.96294e-16
-3.92528e-10
-1.07393e-30
-7.7429e-26
-5.27368e-21
-5.63456e-16
-2.99498e-10
-1.07765e-30
-7.7682e-26
-5.28813e-21
-5.63031e-16
-2.97683e-10
-1.0902e-30
-7.85464e-26
-5.33714e-21
-5.60651e-16
-2.90357e-10
-1.09067e-30
-7.85793e-26
-5.33904e-21
-5.60616e-16
-2.90193e-10
-1.09169e-30
-7.86526e-26
-5.3431e-21
-5.60305e-16
-2.89636e-10
-1.09173e-30
-7.8656e-26
-5.34332e-21
-5.60309e-16
-2.89645e-10
-1.09183e-30
-7.8664e-26
-5.34375e-21
-5.60233e-16
-2.89582e-10
-1.09182e-30
-7.86639e-26
-5.34376e-21
-5.60237e-16
-2.89594e-10
-1.09183e-30
-7.86646e-26
-5.34379e-21
-5.60221e-16
-2.89586e-10
-1.09183e-30
-7.86646e-26
-5.34379e-21
-5.60221e-16
-2.89586e-10
-1.09182e-30
-7.86639e-26
-5.34376e-21
-5.60237e-16
-2.89594e-10
-1.09183e-30
-7.8664e-26
-5.34375e-21
-5.60233e-16
-2.89582e-10
-1.09173e-30
-7.8656e-26
-5.34332e-21
-5.60309e-16
-2.89645e-10
-1.09169e-30
-7.86526e-26
-5.3431e-21
-5.60305e-16
-2.89636e-10
-1.09067e-30
-7.85793e-26
-5.33904e-21
-5.60616e-16
-2.90193e-10
-1.0902e-30
-7.85464e-26
-5.33714e-21
-5.60651e-16
-2.90357e-10
-1.07765e-30
-7.7682e-26
-5.28813e-21
-5.63031e-16
-2.97683e-10
-1.07393e-30
-7.7429e-26
-5.27368e-21
-5.63456e-16
-2.99498e-10
-9.45102e-31
-6.86419e-26
-4.78119e-21
-5.96294e-16
-3.92528e-10
-9.452e-31
-6.85987e-26
-4.3704e-21
4.14831e-16
1.72979e-09
-1.07385e-30
-7.71755e-26
-4.58665e-21
8.04978e-16
2.33619e-09
-1.07756e-30
-7.74248e-26
-4.59624e-21
8.1177e-16
2.34729e-09
-1.0901e-30
-7.82749e-26
-4.62726e-21
8.38117e-16
2.39099e-09
-1.09057e-30
-7.83076e-26
-4.62897e-21
8.38451e-16
2.39174e-09
-1.09159e-30
-7.83805e-26
-4.63304e-21
8.38901e-16
2.39323e-09
-1.09163e-30
-7.8384e-26
-4.63341e-21
8.38731e-16
2.39306e-09
-1.09173e-30
-7.83921e-26
-4.63423e-21
8.38345e-16
2.39271e-09
-1.09172e-30
-7.83921e-26
-4.63431e-21
8.38254e-16
2.3926e-09
-1.09173e-30
-7.83928e-26
-4.63446e-21
8.38133e-16
2.39247e-09
-1.09173e-30
-7.83928e-26
-4.63446e-21
8.38133e-16
2.39247e-09
-1.09172e-30
-7.83921e-26
-4.63431e-21
8.38254e-16
2.3926e-09
-1.09173e-30
-7.83921e-26
-4.63423e-21
8.38345e-16
2.39271e-09
-1.09163e-30
-7.8384e-26
-4.63341e-21
8.38731e-16
2.39306e-09
-1.09159e-30
-7.83805e-26
-4.63304e-21
8.38901e-16
2.39323e-09
-1.09057e-30
-7.83076e-26
-4.62897e-21
8.38451e-16
2.39174e-09
-1.0901e-30
-7.82749e-26
-4.62726e-21
8.38117e-16
2.39099e-09
-1.07756e-30
-7.74248e-26
-4.59624e-21
8.1177e-16
2.34729e-09
-1.07385e-30
-7.71755e-26
-4.58665e-21
8.04978e-16
2.33619e-09
-9.452e-31
-6.85987e-26
-4.3704e-21
4.14831e-16
1.72979e-09
-9.42257e-31
-6.40526e-26
2.64081e-21
1.02797e-14
1.64021e-08
-1.0702e-30
-7.1807e-26
3.43447e-21
1.18647e-14
1.85153e-08
-1.0739e-30
-7.20444e-26
3.44014e-21
1.18909e-14
1.85519e-08
-1.08641e-30
-7.28624e-26
3.45345e-21
1.19831e-14
1.86939e-08
-1.08688e-30
-7.28963e-26
3.45058e-21
1.19832e-14
1.86956e-08
-1.08791e-30
-7.2979e-26
3.43641e-21
1.19774e-14
1.86959e-08
-1.08795e-30
-7.29837e-26
3.43471e-21
1.19762e-14
1.86949e-08
-1.08805e-30
-7.29964e-26
3.42892e-21
1.19718e-14
1.86919e-08
-1.08804e-30
-7.29968e-26
3.4283e-21
1.19713e-14
1.86914e-08
-1.08805e-30
-7.29987e-26
3.42689e-21
1.19701e-14
1.86905e-08
-1.08805e-30
-7.29987e-26
3.42689e-21
1.19701e-14
1.86905e-08
-1.08804e-30
-7.29968e-26
3.4283e-21
1.19713e-14
1.86914e-08
-1.08805e-30
-7.29964e-26
3.42892e-21
1.19718e-14
1.86919e-08
-1.08795e-30
-7.29837e-26
3.43471e-21
1.19762e-14
1.86949e-08
-1.08791e-30
-7.2979e-26
3.43641e-21
1.19774e-14
1.86959e-08
-1.08688e-30
-7.28963e-26
3.45058e-21
1.19832e-14
1.86956e-08
-1.08641e-30
-7.28624e-26
3.45345e-21
1.19831e-14
1.86939e-08
-1.0739e-30
-7.20444e-26
3.44015e-21
1.18909e-14
1.85519e-08
-1.0702e-30
-7.1807e-26
3.43447e-21
1.18647e-14
1.85153e-08
-9.42257e-31
-6.40526e-26
2.64081e-21
1.02797e-14
1.64021e-08
-9.21431e-31
-3.78474e-26
3.59679e-20
4.92268e-14
6.42287e-08
-1.04733e-30
-4.33867e-26
3.92317e-20
5.33957e-14
6.90343e-08
-1.05102e-30
-4.35996e-26
3.92678e-20
5.3459e-14
6.91129e-08
-1.06354e-30
-4.4407e-26
3.93267e-20
5.36549e-14
6.9408e-08
-1.06402e-30
-4.44509e-26
3.93154e-20
5.36511e-14
6.94095e-08
-1.06511e-30
-4.45948e-26
3.92472e-20
5.36134e-14
6.93971e-08
-1.06516e-30
-4.46057e-26
3.92398e-20
5.36082e-14
6.93938e-08
-1.06529e-30
-4.4643e-26
3.92115e-20
5.35888e-14
6.93821e-08
-1.06528e-30
-4.46457e-26
3.92087e-20
5.35867e-14
6.93806e-08
-1.0653e-30
-4.46536e-26
3.92017e-20
5.35817e-14
6.93774e-08
-1.0653e-30
-4.46536e-26
3.92017e-20
5.35817e-14
6.93774e-08
-1.06528e-30
-4.46457e-26
3.92087e-20
5.35867e-14
6.93806e-08
-1.06529e-30
-4.4643e-26
3.92115e-20
5.35888e-14
6.93821e-08
-1.06516e-30
-4.46057e-26
3.92398e-20
5.36082e-14
6.93938e-08
-1.06511e-30
-4.45948e-26
3.92472e-20
5.36134e-14
6.93971e-08
-1.06402e-30
-4.44509e-26
3.93154e-20
5.36511e-14
6.94095e-08
-1.06354e-30
-4.4407e-26
3.93267e-20
5.36549e-14
6.9408e-08
-1.05102e-30
-4.35996e-26
3.92678e-20
5.3459e-14
6.91129e-08
-1.04733e-30
-4.33867e-26
3.92317e-20
5.33957e-14
6.90343e-08
-9.21431e-31
-3.78474e-26
3.59679e-20
4.92268e-14
6.42287e-08
-8.36035e-31
5.60071e-26
1.39466e-19
1.52513e-13
1.69477e-07
-9.57606e-31
5.48213e-26
1.47055e-19
1.60551e-13
1.77298e-07
-9.61281e-31
5.46338e-26
1.47126e-19
1.6066e-13
1.77417e-07
-9.74119e-31
5.36182e-26
1.47088e-19
1.60909e-13
1.77825e-07
-9.74648e-31
5.35347e-26
1.47046e-19
1.6089e-13
1.77821e-07
-9.76017e-31
5.31637e-26
1.468e-19
1.60756e-13
1.77767e-07
-9.7609e-31
5.31318e-26
1.46776e-19
1.60741e-13
1.77758e-07
-9.76318e-31
5.3009e-26
1.46679e-19
1.60682e-13
1.77727e-07
-9.76324e-31
5.29987e-26
1.4667e-19
1.60676e-13
1.77724e-07
-9.76361e-31
5.29702e-26
1.46646e-19
1.60661e-13
1.77715e-07
-9.76361e-31
5.29702e-26
1.46646e-19
1.60661e-13
1.77715e-07
-9.76324e-31
5.29987e-26
1.4667e-19
1.60676e-13
1.77724e-07
-9.76318e-31
5.3009e-26
1.46679e-19
1.60682e-13
1.77727e-07
-9.7609e-31
5.31318e-26
1.46776e-19
1.60741e-13
1.77758e-07
-9.76017e-31
5.31637e-26
1.468e-19
1.60756e-13
1.77767e-07
-9.74648e-31
5.35347e-26
1.47046e-19
1.6089e-13
1.77821e-07
-9.74119e-31
5.36182e-26
1.47088e-19
1.60909e-13
1.77825e-07
-9.61281e-31
5.46338e-26
1.47126e-19
1.6066e-13
1.77417e-07
-9.57606e-31
5.48214e-26
1.47055e-19
1.60551e-13
1.77298e-07
-8.36035e-31
5.60071e-26
1.39466e-19
1.52513e-13
1.69477e-07
-5.7309e-31
3.12754e-25
3.87725e-19
3.6474e-13
3.46873e-07
-6.88008e-31
3.17792e-25
4.00724e-19
3.76732e-13
3.56386e-07
-6.91755e-31
3.17577e-25
4.00794e-19
3.76862e-13
3.56511e-07
-7.0602e-31
3.15598e-25
4.00163e-19
3.76916e-13
3.56836e-07
-7.06706e-31
3.154e-25
4.00043e-19
3.76859e-13
3.56815e-07
-7.08928e-31
3.14394e-25
3.99353e-19
3.76507e-13
3.56667e-07
-7.09076e-31
3.14306e-25
3.99289e-19
3.76472e-13
3.5665e-07
-7.0961e-31
3.13952e-25
3.99028e-19
3.76329e-13
3.56583e-07
-7.09642e-31
3.13922e-25
3.99005e-19
3.76316e-13
3.56576e-07
-7.09751e-31
3.13838e-25
3.98942e-19
3.76281e-13
3.56559e-07
-7.09751e-31
3.13838e-25
3.98942e-19
3.76281e-13
3.56559e-07
-7.09642e-31
3.13922e-25
3.99005e-19
3.76316e-13
3.56576e-07
-7.0961e-31
3.13952e-25
3.99028e-19
3.76329e-13
3.56583e-07
-7.09076e-31
3.14306e-25
3.99289e-19
3.76472e-13
3.5665e-07
-7.08928e-31
3.14394e-25
3.99353e-19
3.76507e-13
3.56667e-07
-7.06706e-31
3.154e-25
4.00043e-19
3.76859e-13
3.56815e-07
-7.0602e-31
3.15598e-25
4.00163e-19
3.76916e-13
3.56836e-07
-6.91754e-31
3.17577e-25
4.00794e-19
3.76862e-13
3.56511e-07
-6.88008e-31
3.17792e-25
4.00724e-19
3.76732e-13
3.56386e-07
-5.7309e-31
3.12754e-25
3.87725e-19
3.6474e-13
3.46873e-07
9.52594e-32
8.96681e-25
8.84934e-19
7.28611e-13
5.92836e-07
-1.37779e-32
9.07194e-25
9.01968e-19
7.42666e-13
6.01467e-07
-1.78828e-32
9.06772e-25
9.01919e-19
7.42751e-13
6.01543e-07
-3.65127e-32
9.01991e-25
8.99596e-19
7.42089e-13
6.01467e-07
-3.76047e-32
9.01522e-25
8.99306e-19
7.41959e-13
6.01415e-07
-4.20184e-32
8.99043e-25
8.97695e-19
7.41199e-13
6.01105e-07
-4.23506e-32
8.9883e-25
8.97552e-19
7.41129e-13
6.01075e-07
-4.36554e-32
8.97954e-25
8.96963e-19
7.40839e-13
6.00951e-07
-4.37504e-32
8.97882e-25
8.96912e-19
7.40814e-13
6.0094e-07
-4.40427e-32
8.97673e-25
8.96771e-19
7.40744e-13
6.0091e-07
-4.40427e-32
8.97673e-25
8.96771e-19
7.40744e-13
6.0091e-07
-4.37504e-32
8.97882e-25
8.96912e-19
7.40814e-13
6.0094e-07
-4.36553e-32
8.97954e-25
8.96963e-19
7.40839e-13
6.00951e-07
-4.23506e-32
8.9883e-25
8.97552e-19
7.41129e-13
6.01075e-07
-4.20184e-32
8.99043e-25
8.97695e-19
7.41199e-13
6.01105e-07
-3.76046e-32
9.01522e-25
8.99306e-19
7.41959e-13
6.01415e-07
-3.65126e-32
9.01991e-25
8.99596e-19
7.42089e-13
6.01467e-07
-1.78827e-32
9.06772e-25
9.01919e-19
7.42751e-13
6.01543e-07
-1.37777e-32
9.07194e-25
9.01968e-19
7.42666e-13
6.01467e-07
9.52593e-32
8.96681e-25
8.84934e-19
7.28611e-13
5.92836e-07
1.51048e-30
1.97e-24
1.62838e-18
1.08939e-12
5.89268e-07
1.40036e-30
1.98267e-24
1.64814e-18
1.10558e-12
5.97969e-07
1.39528e-30
1.98174e-24
1.64786e-18
1.10562e-12
5.98049e-07
1.36653e-30
1.97127e-24
1.64278e-18
1.10427e-12
5.97997e-07
1.36457e-30
1.9703e-24
1.64224e-18
1.10407e-12
5.97947e-07
1.35549e-30
1.9651e-24
1.63924e-18
1.10291e-12
5.97646e-07
1.35478e-30
1.96466e-24
1.63898e-18
1.10281e-12
5.97616e-07
1.35185e-30
1.96283e-24
1.6379e-18
1.10238e-12
5.97496e-07
1.35163e-30
1.96268e-24
1.63781e-18
1.10234e-12
5.97485e-07
1.35095e-30
1.96224e-24
1.63755e-18
1.10224e-12
5.97456e-07
1.35095e-30
1.96224e-24
1.63755e-18
1.10224e-12
5.97456e-07
1.35163e-30
1.96268e-24
1.63781e-18
1.10234e-12
5.97485e-07
1.35185e-30
1.96283e-24
1.6379e-18
1.10238e-12
5.97496e-07
1.35478e-30
1.96466e-24
1.63898e-18
1.10281e-12
5.97616e-07
1.35549e-30
1.9651e-24
1.63924e-18
1.10291e-12
5.97646e-07
1.36457e-30
1.9703e-24
1.64224e-18
1.10407e-12
5.97947e-07
1.36653e-30
1.97127e-24
1.64278e-18
1.10427e-12
5.97997e-07
1.39528e-30
1.98174e-24
1.64786e-18
1.10562e-12
5.98049e-07
1.40036e-30
1.98267e-24
1.64814e-18
1.10558e-12
5.97969e-07
1.51048e-30
1.97e-24
1.62838e-18
1.08939e-12
5.89268e-07
4.12639e-30
3.69277e-24
2.61525e-18
1.44706e-12
5.85765e-07
3.99892e-30
3.70176e-24
2.6365e-18
1.46544e-12
5.94535e-07
3.99184e-30
3.69992e-24
2.6359e-18
1.46545e-12
5.9462e-07
3.94342e-30
3.67988e-24
2.62703e-18
1.46344e-12
5.9459e-07
3.93985e-30
3.6781e-24
2.62615e-18
1.46317e-12
5.94542e-07
3.92215e-30
3.66851e-24
2.62132e-18
1.46163e-12
5.9425e-07
3.92073e-30
3.66772e-24
2.62091e-18
1.46149e-12
5.94221e-07
3.91484e-30
3.66436e-24
2.61919e-18
1.46092e-12
5.94104e-07
3.91438e-30
3.66409e-24
2.61904e-18
1.46087e-12
5.94093e-07
3.913e-30
3.6633e-24
2.61863e-18
1.46073e-12
5.94065e-07
3.913e-30
3.6633e-24
2.61863e-18
1.46073e-12
5.94065e-07
3.91438e-30
3.66409e-24
2.61904e-18
1.46087e-12
5.94093e-07
3.91484e-30
3.66436e-24
2.61919e-18
1.46092e-12
5.94104e-07
3.92073e-30
3.66772e-24
2.62091e-18
1.46149e-12
5.94221e-07
3.92215e-30
3.66851e-24
2.62132e-18
1.46163e-12
5.9425e-07
3.93985e-30
3.6781e-24
2.62615e-18
1.46317e-12
5.94542e-07
3.94342e-30
3.67988e-24
2.62703e-18
1.46344e-12
5.9459e-07
3.99184e-30
3.69992e-24
2.6359e-18
1.46545e-12
5.9462e-07
3.99892e-30
3.70176e-24
2.6365e-18
1.46544e-12
5.94535e-07
4.12639e-30
3.69277e-24
2.61525e-18
1.44706e-12
5.85765e-07
8.50784e-30
6.22283e-24
3.84266e-18
1.80155e-12
5.82314e-07
8.33441e-30
6.21984e-24
3.86422e-18
1.82218e-12
5.91151e-07
8.32373e-30
6.21657e-24
3.86319e-18
1.82216e-12
5.91239e-07
8.24142e-30
6.1821e-24
3.84957e-18
1.81952e-12
5.91232e-07
8.23515e-30
6.17913e-24
3.84827e-18
1.81918e-12
5.91186e-07
8.20303e-30
6.16313e-24
3.84117e-18
1.81727e-12
5.90902e-07
8.20045e-30
6.16181e-24
3.84057e-18
1.8171e-12
5.90874e-07
8.18961e-30
6.15624e-24
3.83805e-18
1.81639e-12
5.9076e-07
8.18876e-30
6.15579e-24
3.83785e-18
1.81633e-12
5.9075e-07
8.18622e-30
6.15447e-24
3.83725e-18
1.81616e-12
5.90722e-07
8.18622e-30
6.15447e-24
3.83725e-18
1.81616e-12
5.90722e-07
8.18876e-30
6.15579e-24
3.83785e-18
1.81633e-12
5.9075e-07
8.18961e-30
6.15624e-24
3.83805e-18
1.81639e-12
5.9076e-07
8.20045e-30
6.16181e-24
3.84057e-18
1.8171e-12
5.90874e-07
8.20303e-30
6.16313e-24
3.84117e-18
1.81727e-12
5.90902e-07
8.23515e-30
6.17913e-24
3.84827e-18
1.81918e-12
5.91186e-07
8.24142e-30
6.1821e-24
3.84957e-18
1.81952e-12
5.91232e-07
8.32373e-30
6.21657e-24
3.86319e-18
1.82216e-12
5.91239e-07
8.33441e-30
6.21984e-24
3.86422e-18
1.82218e-12
5.91151e-07
8.50784e-30
6.22283e-24
3.84266e-18
1.80155e-12
5.82314e-07
1.53294e-29
9.71571e-24
5.30758e-18
2.15276e-12
5.7891e-07
1.50659e-29
9.69e-24
5.32836e-18
2.17572e-12
5.87813e-07
1.50495e-29
9.6847e-24
5.32682e-18
2.17568e-12
5.87905e-07
1.49134e-29
9.63002e-24
5.30748e-18
2.17243e-12
5.87919e-07
1.4903e-29
9.62543e-24
5.3057e-18
2.17203e-12
5.87875e-07
1.48485e-29
9.60059e-24
5.2959e-18
2.16975e-12
5.87599e-07
1.48441e-29
9.59856e-24
5.29508e-18
2.16955e-12
5.87572e-07
1.48256e-29
9.58995e-24
5.29163e-18
2.16871e-12
5.87461e-07
1.48242e-29
9.58926e-24
5.29135e-18
2.16864e-12
5.87451e-07
1.48198e-29
9.58723e-24
5.29053e-18
2.16844e-12
5.87424e-07
1.48198e-29
9.58723e-24
5.29053e-18
2.16844e-12
5.87424e-07
1.48242e-29
9.58926e-24
5.29135e-18
2.16864e-12
5.87451e-07
1.48256e-29
9.58995e-24
5.29163e-18
2.16871e-12
5.87461e-07
1.48441e-29
9.59856e-24
5.29508e-18
2.16955e-12
5.87572e-07
1.48485e-29
9.60059e-24
5.2959e-18
2.16975e-12
5.87599e-07
1.4903e-29
9.62543e-24
5.3057e-18
2.17203e-12
5.87875e-07
1.49134e-29
9.63002e-24
5.30748e-18
2.17243e-12
5.87919e-07
1.50495e-29
9.6847e-24
5.32682e-18
2.17568e-12
5.87905e-07
1.50659e-29
9.69e-24
5.32836e-18
2.17572e-12
5.87813e-07
1.53294e-29
9.71571e-24
5.30758e-18
2.15276e-12
5.7891e-07
2.53739e-29
1.43245e-23
7.0069e-18
2.50063e-12
5.75549e-07
2.49579e-29
1.4263e-23
7.02586e-18
2.52597e-12
5.84516e-07
2.49327e-29
1.4255e-23
7.02374e-18
2.52592e-12
5.84612e-07
2.47167e-29
1.41734e-23
6.99779e-18
2.5221e-12
5.84648e-07
2.47002e-29
1.41667e-23
6.99544e-18
2.52164e-12
5.84605e-07
2.46128e-29
1.41303e-23
6.98255e-18
2.519e-12
5.84338e-07
2.46058e-29
1.41273e-23
6.98148e-18
2.51877e-12
5.84311e-07
2.45761e-29
1.41147e-23
6.97695e-18
2.51781e-12
5.84203e-07
2.45738e-29
1.41137e-23
6.97658e-18
2.51772e-12
5.84194e-07
2.45669e-29
1.41107e-23
6.9755e-18
2.51749e-12
5.84167e-07
2.45669e-29
1.41107e-23
6.9755e-18
2.51749e-12
5.84167e-07
2.45738e-29
1.41137e-23
6.97658e-18
2.51772e-12
5.84194e-07
2.45761e-29
1.41147e-23
6.97695e-18
2.51781e-12
5.84203e-07
2.46058e-29
1.41273e-23
6.98148e-18
2.51877e-12
5.84311e-07
2.46128e-29
1.41303e-23
6.98255e-18
2.519e-12
5.84338e-07
2.47002e-29
1.41667e-23
6.99544e-18
2.52164e-12
5.84605e-07
2.47167e-29
1.41734e-23
6.99779e-18
2.5221e-12
5.84648e-07
2.49327e-29
1.4255e-23
7.02374e-18
2.52592e-12
5.84612e-07
2.49579e-29
1.4263e-23
7.02586e-18
2.52597e-12
5.84516e-07
2.53739e-29
1.43245e-23
7.0069e-18
2.50063e-12
5.75549e-07
3.95312e-29
2.02e-23
8.93741e-18
2.84507e-12
5.72227e-07
3.88785e-29
2.00871e-23
8.95359e-18
2.87287e-12
5.81258e-07
3.88408e-29
2.00756e-23
8.95081e-18
2.8728e-12
5.81357e-07
3.85115e-29
1.99597e-23
8.91739e-18
2.86844e-12
5.81414e-07
3.84864e-29
1.99503e-23
8.91441e-18
2.86792e-12
5.81373e-07
3.83528e-29
1.98992e-23
8.89803e-18
2.86494e-12
5.81114e-07
3.83422e-29
1.9895e-23
8.89668e-18
2.86468e-12
5.81088e-07
3.82969e-29
1.98774e-23
8.89094e-18
2.86359e-12
5.80983e-07
3.82934e-29
1.9876e-23
8.89048e-18
2.8635e-12
5.80973e-07
3.82828e-29
1.98719e-23
8.88911e-18
2.86324e-12
5.80947e-07
3.82828e-29
1.98719e-23
8.88911e-18
2.86324e-12
5.80947e-07
3.82934e-29
1.9876e-23
8.89048e-18
2.8635e-12
5.80973e-07
3.82969e-29
1.98774e-23
8.89094e-18
2.86359e-12
5.80983e-07
3.83422e-29
1.9895e-23
8.89668e-18
2.86468e-12
5.81088e-07
3.83528e-29
1.98992e-23
8.89803e-18
2.86494e-12
5.81114e-07
3.84864e-29
1.99503e-23
8.91441e-18
2.86792e-12
5.81373e-07
3.85115e-29
1.99597e-23
8.91739e-18
2.86844e-12
5.81414e-07
3.88408e-29
2.00756e-23
8.95081e-18
2.8728e-12
5.81357e-07
3.88785e-29
2.00871e-23
8.95359e-18
2.87287e-12
5.81258e-07
3.95312e-29
2.02e-23
8.93741e-18
2.84507e-12
5.72227e-07
5.87965e-29
2.74902e-23
1.10958e-17
3.18601e-12
5.68941e-07
5.77985e-29
2.73082e-23
1.11083e-17
3.21632e-12
5.78034e-07
5.77437e-29
2.72924e-23
1.11048e-17
3.21624e-12
5.78137e-07
5.72596e-29
2.71339e-23
1.10631e-17
3.21137e-12
5.78214e-07
5.7223e-29
2.71212e-23
1.10594e-17
3.2108e-12
5.78175e-07
5.70269e-29
2.70519e-23
1.10392e-17
3.20748e-12
5.77923e-07
5.70114e-29
2.70463e-23
1.10375e-17
3.2072e-12
5.77898e-07
5.6945e-29
2.70225e-23
1.10304e-17
3.20599e-12
5.77796e-07
5.69398e-29
2.70207e-23
1.10299e-17
3.20589e-12
5.77787e-07
5.69242e-29
2.7015e-23
1.10282e-17
3.2056e-12
5.77762e-07
5.69242e-29
2.7015e-23
1.10282e-17
3.2056e-12
5.77762e-07
5.69398e-29
2.70207e-23
1.10299e-17
3.20589e-12
5.77787e-07
5.6945e-29
2.70225e-23
1.10304e-17
3.20599e-12
5.77796e-07
5.70114e-29
2.70463e-23
1.10375e-17
3.2072e-12
5.77898e-07
5.70269e-29
2.70519e-23
1.10392e-17
3.20748e-12
5.77923e-07
5.7223e-29
2.71212e-23
1.10594e-17
3.2108e-12
5.78175e-07
5.72596e-29
2.71339e-23
1.10631e-17
3.21137e-12
5.78214e-07
5.77437e-29
2.72924e-23
1.11048e-17
3.21624e-12
5.78137e-07
5.77985e-29
2.73082e-23
1.11083e-17
3.21631e-12
5.78034e-07
5.87965e-29
2.74902e-23
1.10958e-17
3.18601e-12
5.68941e-07
8.42691e-29
3.63406e-23
1.34786e-17
3.52335e-12
5.65687e-07
8.27893e-29
3.60696e-23
1.34866e-17
3.55624e-12
5.74841e-07
8.27118e-29
3.60485e-23
1.34823e-17
3.55617e-12
5.74948e-07
8.2023e-29
3.58384e-23
1.34316e-17
3.55081e-12
5.75045e-07
8.19713e-29
3.58217e-23
1.34272e-17
3.55019e-12
5.75007e-07
8.16928e-29
3.57305e-23
1.34027e-17
3.54655e-12
5.74763e-07
8.1671e-29
3.57233e-23
1.34007e-17
3.54624e-12
5.74739e-07
8.15768e-29
3.5692e-23
1.33922e-17
3.54492e-12
5.74639e-07
8.15696e-29
3.56895e-23
1.33915e-17
3.54481e-12
5.7463e-07
8.15475e-29
3.56822e-23
1.33895e-17
3.54449e-12
5.74606e-07
8.15475e-29
3.56822e-23
1.33895e-17
3.54449e-12
5.74606e-07
8.15696e-29
3.56895e-23
1.33915e-17
3.54481e-12
5.7463e-07
8.15768e-29
3.5692e-23
1.33922e-17
3.54492e-12
5.74639e-07
8.1671e-29
3.57233e-23
1.34007e-17
3.54624e-12
5.74739e-07
8.16928e-29
3.57305e-23
1.34027e-17
3.54655e-12
5.74763e-07
8.19713e-29
3.58217e-23
1.34272e-17
3.55019e-12
5.75007e-07
8.2023e-29
3.58384e-23
1.34316e-17
3.55081e-12
5.75045e-07
8.27118e-29
3.60485e-23
1.34823e-17
3.55617e-12
5.74948e-07
8.27893e-29
3.60696e-23
1.34866e-17
3.55624e-12
5.74841e-07
8.42691e-29
3.63406e-23
1.34786e-17
3.52335e-12
5.65687e-07
1.17151e-28
4.6894e-23
1.60824e-17
3.85701e-12
5.62457e-07
1.15022e-28
4.65117e-23
1.60851e-17
3.89255e-12
5.71671e-07
1.14915e-28
4.64844e-23
1.60801e-17
3.89248e-12
5.71782e-07
1.13962e-28
4.62131e-23
1.60195e-17
3.88668e-12
5.71898e-07
1.13891e-28
4.61917e-23
1.60143e-17
3.886e-12
5.71862e-07
1.13507e-28
4.60746e-23
1.59853e-17
3.88206e-12
5.71625e-07
1.13477e-28
4.60653e-23
1.59829e-17
3.88172e-12
5.71602e-07
1.13347e-28
4.60252e-23
1.59728e-17
3.88029e-12
5.71505e-07
1.13337e-28
4.60221e-23
1.5972e-17
3.88017e-12
5.71496e-07
1.13307e-28
4.60127e-23
1.59696e-17
3.87983e-12
5.71472e-07
1.13307e-28
4.60127e-23
1.59696e-17
3.87983e-12
5.71472e-07
1.13337e-28
4.60221e-23
1.5972e-17
3.88017e-12
5.71496e-07
1.13347e-28
4.60252e-23
1.59728e-17
3.88029e-12
5.71505e-07
1.13477e-28
4.60653e-23
1.59829e-17
3.88172e-12
5.71602e-07
1.13507e-28
4.60746e-23
1.59853e-17
3.88206e-12
5.71625e-07
1.13891e-28
4.61917e-23
1.60143e-17
3.886e-12
5.71862e-07
1.13962e-28
4.62131e-23
1.60195e-17
3.88668e-12
5.71898e-07
1.14915e-28
4.64844e-23
1.60801e-17
3.89248e-12
5.71782e-07
1.15022e-28
4.65117e-23
1.60851e-17
3.89255e-12
5.71671e-07
1.17151e-28
4.6894e-23
1.60824e-17
3.85701e-12
5.62457e-07
1.58744e-28
5.92905e-23
1.89036e-17
4.18689e-12
5.59223e-07
1.55765e-28
5.87725e-23
1.89003e-17
4.22514e-12
5.68497e-07
1.55621e-28
5.8738e-23
1.88944e-17
4.22508e-12
5.68611e-07
1.54335e-28
5.83951e-23
1.88234e-17
4.21887e-12
5.68747e-07
1.5424e-28
5.83683e-23
1.88174e-17
4.21814e-12
5.68712e-07
1.53723e-28
5.82209e-23
1.87834e-17
4.2139e-12
5.68483e-07
1.53683e-28
5.82093e-23
1.87807e-17
4.21354e-12
5.6846e-07
1.53508e-28
5.8159e-23
1.87689e-17
4.212e-12
5.68366e-07
1.53495e-28
5.81551e-23
1.8768e-17
4.21188e-12
5.68358e-07
1.53454e-28
5.81433e-23
1.87652e-17
4.21151e-12
5.68335e-07
1.53454e-28
5.81433e-23
1.87652e-17
4.21151e-12
5.68335e-07
1.53495e-28
5.81551e-23
1.8768e-17
4.21188e-12
5.68358e-07
1.53508e-28
5.8159e-23
1.87689e-17
4.212e-12
5.68366e-07
1.53683e-28
5.82093e-23
1.87807e-17
4.21354e-12
5.6846e-07
1.53723e-28
5.82209e-23
1.87834e-17
4.2139e-12
5.68483e-07
1.5424e-28
5.83683e-23
1.88174e-17
4.21814e-12
5.68712e-07
1.54335e-28
5.8395e-23
1.88234e-17
4.21887e-12
5.68747e-07
1.55621e-28
5.8738e-23
1.88944e-17
4.22508e-12
5.68611e-07
1.55765e-28
5.87725e-23
1.89003e-17
4.22514e-12
5.68497e-07
1.58744e-28
5.92905e-23
1.89036e-17
4.18689e-12
5.59223e-07
-1.23031e-06
-1.17264e-07
-2.19498e-09
-9.06768e-12
-7.27994e-15
1.54669e-17
1.6787e-17
1.68025e-17
1.6806e-17
1.68066e-17
1.68078e-17
1.68124e-17
1.68387e-17
1.68743e-17
1.71868e-17
1.74768e-17
2.0632e-17
2.245e-17
6.90919e-17
8.10283e-17
-1.32756e-06
-1.28048e-07
-2.46298e-09
-1.04933e-11
-8.71664e-15
1.5186e-17
1.67865e-17
1.68023e-17
1.68058e-17
1.68063e-17
1.68064e-17
1.68102e-17
1.6837e-17
1.68731e-17
1.71902e-17
1.74832e-17
2.06744e-17
2.25036e-17
6.96292e-17
8.168e-17
-1.33027e-06
-1.28295e-07
-2.46764e-09
-1.05151e-11
-8.73794e-15
1.51817e-17
1.67865e-17
1.68023e-17
1.68058e-17
1.68063e-17
1.68064e-17
1.68103e-17
1.68371e-17
1.68733e-17
1.71905e-17
1.74836e-17
2.06753e-17
2.25045e-17
6.96344e-17
8.16852e-17
-1.34005e-06
-1.29123e-07
-2.48039e-09
-1.05653e-11
-8.78345e-15
1.51724e-17
1.67865e-17
1.68023e-17
1.68059e-17
1.68063e-17
1.68066e-17
1.68109e-17
1.68378e-17
1.68739e-17
1.71914e-17
1.74847e-17
2.06779e-17
2.25074e-17
6.96492e-17
8.16985e-17
-1.34043e-06
-1.29151e-07
-2.48071e-09
-1.05661e-11
-8.78399e-15
1.51723e-17
1.67865e-17
1.68023e-17
1.68059e-17
1.68063e-17
1.68067e-17
1.68109e-17
1.68378e-17
1.6874e-17
1.71915e-17
1.74847e-17
2.0678e-17
2.25075e-17
6.96495e-17
8.16988e-17
-1.34141e-06
-1.29194e-07
-2.48074e-09
-1.05647e-11
-8.78212e-15
1.51726e-17
1.67865e-17
1.68023e-17
1.68059e-17
1.68063e-17
1.68067e-17
1.6811e-17
1.68378e-17
1.6874e-17
1.71915e-17
1.74848e-17
2.06781e-17
2.25076e-17
6.965e-17
8.16991e-17
-1.34148e-06
-1.29197e-07
-2.48071e-09
-1.05645e-11
-8.78182e-15
1.51726e-17
1.67865e-17
1.68023e-17
1.68059e-17
1.68063e-17
1.68067e-17
1.6811e-17
1.68378e-17
1.6874e-17
1.71915e-17
1.74848e-17
2.06781e-17
2.25076e-17
6.965e-17
8.16991e-17
-1.34166e-06
-1.29197e-07
-2.48052e-09
-1.05633e-11
-8.78073e-15
1.51728e-17
1.67865e-17
1.68023e-17
1.68059e-17
1.68063e-17
1.68067e-17
1.6811e-17
1.68378e-17
1.6874e-17
1.71915e-17
1.74848e-17
2.06781e-17
2.25076e-17
6.965e-17
8.16992e-17
-1.34168e-06
-1.29197e-07
-2.4805e-09
-1.05632e-11
-8.78062e-15
1.51728e-17
1.67865e-17
1.68023e-17
1.68059e-17
1.68063e-17
1.68067e-17
1.6811e-17
1.68378e-17
1.6874e-17
1.71915e-17
1.74848e-17
2.06781e-17
2.25076e-17
6.965e-17
8.16992e-17
-1.34172e-06
-1.29196e-07
-2.48045e-09
-1.0563e-11
-8.78041e-15
1.51728e-17
1.67865e-17
1.68023e-17
1.68059e-17
1.68063e-17
1.68067e-17
1.6811e-17
1.68378e-17
1.6874e-17
1.71915e-17
1.74848e-17
2.06781e-17
2.25076e-17
6.965e-17
8.16992e-17
-1.34172e-06
-1.29196e-07
-2.48045e-09
-1.0563e-11
-8.78041e-15
1.51728e-17
1.67865e-17
1.68023e-17
1.68059e-17
1.68063e-17
1.68067e-17
1.6811e-17
1.68378e-17
1.6874e-17
1.71915e-17
1.74848e-17
2.06781e-17
2.25076e-17
6.965e-17
8.16992e-17
-1.34168e-06
-1.29197e-07
-2.4805e-09
-1.05632e-11
-8.78062e-15
1.51728e-17
1.67865e-17
1.68023e-17
1.68059e-17
1.68063e-17
1.68067e-17
1.6811e-17
1.68378e-17
1.6874e-17
1.71915e-17
1.74848e-17
2.06781e-17
2.25076e-17
6.965e-17
8.16992e-17
-1.34166e-06
-1.29197e-07
-2.48052e-09
-1.05633e-11
-8.78073e-15
1.51728e-17
1.67865e-17
1.68023e-17
1.68059e-17
1.68063e-17
1.68067e-17
1.6811e-17
1.68378e-17
1.6874e-17
1.71915e-17
1.74848e-17
2.06781e-17
2.25076e-17
6.965e-17
8.16992e-17
-1.34148e-06
-1.29197e-07
-2.48071e-09
-1.05645e-11
-8.78182e-15
1.51726e-17
1.67865e-17
1.68023e-17
1.68059e-17
1.68063e-17
1.68067e-17
1.6811e-17
1.68378e-17
1.6874e-17
1.71915e-17
1.74848e-17
2.06781e-17
2.25076e-17
6.965e-17
8.16991e-17
-1.34141e-06
-1.29194e-07
-2.48074e-09
-1.05647e-11
-8.78212e-15
1.51726e-17
1.67865e-17
1.68023e-17
1.68059e-17
1.68063e-17
1.68067e-17
1.6811e-17
1.68378e-17
1.6874e-17
1.71915e-17
1.74848e-17
2.06781e-17
2.25076e-17
6.965e-17
8.16991e-17
-1.34043e-06
-1.29151e-07
-2.48071e-09
-1.05661e-11
-8.78399e-15
1.51723e-17
1.67865e-17
1.68023e-17
1.68059e-17
1.68063e-17
1.68067e-17
1.68109e-17
1.68378e-17
1.6874e-17
1.71915e-17
1.74847e-17
2.0678e-17
2.25075e-17
6.96495e-17
8.16988e-17
-1.34005e-06
-1.29123e-07
-2.48039e-09
-1.05653e-11
-8.78345e-15
1.51724e-17
1.67865e-17
1.68023e-17
1.68059e-17
1.68063e-17
1.68066e-17
1.68109e-17
1.68378e-17
1.68739e-17
1.71914e-17
1.74847e-17
2.06779e-17
2.25074e-17
6.96492e-17
8.16985e-17
-1.33027e-06
-1.28295e-07
-2.46764e-09
-1.05151e-11
-8.73794e-15
1.51817e-17
1.67865e-17
1.68023e-17
1.68058e-17
1.68063e-17
1.68064e-17
1.68103e-17
1.68371e-17
1.68733e-17
1.71905e-17
1.74836e-17
2.06753e-17
2.25045e-17
6.96344e-17
8.16852e-17
-1.32756e-06
-1.28048e-07
-2.46298e-09
-1.04933e-11
-8.71664e-15
1.5186e-17
1.67865e-17
1.68023e-17
1.68058e-17
1.68063e-17
1.68064e-17
1.68102e-17
1.6837e-17
1.68731e-17
1.71902e-17
1.74832e-17
2.06744e-17
2.25036e-17
6.96292e-17
8.168e-17
-1.23031e-06
-1.17264e-07
-2.19498e-09
-9.06768e-12
-7.27994e-15
1.54669e-17
1.6787e-17
1.68025e-17
1.6806e-17
1.68066e-17
1.68078e-17
1.68124e-17
1.68387e-17
1.68743e-17
1.71868e-17
1.74768e-17
2.0632e-17
2.245e-17
6.90919e-17
8.10283e-17
-4.86624e-05
-7.05164e-06
-1.82864e-07
-9.12353e-10
-8.47466e-13
1.66679e-15
1.84032e-15
1.84243e-15
1.8429e-15