/*--------------------------------*- C++ -*----------------------------------*\
  =========                 |
  \\      /  F ield         | OpenFOAM: The Open Source CFD Toolbox
   \\    /   O peration     | Website:  https://openfoam.org
    \\  /    A nd           | Version:  8
     \\/     M anipulation  |
\*---------------------------------------------------------------------------*/
FoamFile
{
    version     2.0;
    format      ascii;
    class       volScalarField;
    location    "1.5";
    object      p;
}
// * * * * * * * * * * * * * * * * * * * * * * * * * * * * * * * * * * * * * //

dimensions      [0 2 -2 0 0 0 0];

internalField   nonuniform List<scalar> 
180000
(
0.00102746
0.000958545
0.00100629
0.000849894
0.000936162
0.00101285
0.000944229
0.000991647
0.000836775
0.00092169
0.0010123
0.000943713
0.000991105
0.000836329
0.000921177
0.00100885
0.000940399
0.000987643
0.000833439
0.000917927
0.00100861
0.000940171
0.0009874
0.00083324
0.000917697
0.00100748
0.000939088
0.000986259
0.000832297
0.000916624
0.00100739
0.000939
0.000986164
0.00083222
0.000916534
0.00100701
0.000938642
0.000985786
0.000831907
0.000916178
0.00100698
0.000938613
0.000985755
0.000831881
0.000916148
0.00100689
0.000938529
0.000985667
0.000831808
0.000916064
0.00100689
0.000938529
0.000985667
0.000831808
0.000916064
0.00100698
0.000938613
0.000985755
0.000831881
0.000916148
0.00100701
0.000938642
0.000985786
0.000831907
0.000916178
0.00100739
0.000939
0.000986164
0.00083222
0.000916534
0.00100748
0.000939088
0.000986259
0.000832297
0.000916624
0.00100861
0.000940171
0.0009874
0.00083324
0.000917697
0.00100885
0.000940399
0.000987643
0.000833439
0.000917927
0.0010123
0.000943713
0.000991105
0.000836329
0.000921177
0.00101285
0.000944229
0.000991647
0.000836775
0.00092169
0.00102746
0.000958545
0.00100629
0.000849894
0.000936162
0.00078028
0.000757638
0.000774332
0.000710764
0.000749693
0.000775961
0.000752315
0.000769664
0.000704383
0.000743953
0.000775797
0.00075212
0.000769488
0.000704164
0.000743746
0.000774711
0.000750823
0.000768316
0.000702699
0.000742392
0.000774636
0.000750734
0.000768235
0.000702599
0.000742297
0.000774273
0.000750305
0.000767842
0.000702118
0.000741845
0.000774243
0.00075027
0.00076781
0.000702078
0.000741807
0.000774123
0.000750127
0.000767679
0.000701917
0.000741656
0.000774113
0.000750116
0.000767669
0.000701904
0.000741644
0.000774084
0.000750082
0.000767638
0.000701867
0.000741608
0.000774084
0.000750082
0.000767638
0.000701867
0.000741608
0.000774113
0.000750116
0.000767669
0.000701904
0.000741644
0.000774123
0.000750127
0.000767679
0.000701917
0.000741656
0.000774243
0.00075027
0.00076781
0.000702078
0.000741807
0.000774273
0.000750305
0.000767842
0.000702118
0.000741845
0.000774636
0.000750734
0.000768235
0.000702599
0.000742297
0.000774711
0.000750823
0.000768316
0.000702699
0.000742392
0.000775797
0.00075212
0.000769488
0.000704164
0.000743746
0.000775961
0.000752315
0.000769664
0.000704383
0.000743953
0.00078028
0.000757638
0.000774332
0.000710764
0.000749693
0.000567508
0.000546852
0.000562369
0.00050789
0.000543234
0.000563431
0.000542312
0.000558118
0.00050298
0.000538456
0.000563279
0.000542147
0.00055796
0.000502812
0.000538285
0.000562239
0.000541019
0.000556876
0.000501655
0.00053713
0.000562168
0.000540943
0.000556802
0.000501577
0.00053705
0.000561821
0.00054057
0.000556439
0.000501195
0.000536664
0.000561793
0.00054054
0.000556409
0.000501164
0.000536632
0.000561677
0.000540415
0.000556288
0.000501036
0.000536503
0.000561668
0.000540405
0.000556278
0.000501026
0.000536492
0.000561641
0.000540376
0.000556249
0.000500996
0.000536462
0.000561641
0.000540376
0.000556249
0.000500996
0.000536462
0.000561668
0.000540405
0.000556278
0.000501026
0.000536492
0.000561677
0.000540415
0.000556288
0.000501036
0.000536503
0.000561793
0.00054054
0.000556409
0.000501164
0.000536632
0.000561821
0.00054057
0.000556439
0.000501195
0.000536664
0.000562168
0.000540943
0.000556802
0.000501577
0.00053705
0.000562239
0.000541019
0.000556876
0.000501655
0.00053713
0.000563279
0.000542147
0.00055796
0.000502812
0.000538285
0.000563431
0.000542312
0.000558118
0.00050298
0.000538456
0.000567508
0.000546852
0.000562369
0.00050789
0.000543234
0.000545234
0.000517521
0.00053819
0.000470164
0.000515565
0.000539553
0.000511749
0.000532445
0.000464577
0.000509669
0.00053934
0.000511539
0.000532231
0.000464385
0.000509457
0.000537905
0.000510107
0.000530776
0.000463057
0.000508026
0.000537807
0.000510011
0.000530676
0.000462968
0.000507927
0.00053733
0.000509538
0.000530191
0.00046253
0.00050745
0.000537292
0.0005095
0.000530151
0.000462495
0.00050741
0.000537133
0.000509342
0.000529989
0.000462349
0.00050725
0.00053712
0.00050933
0.000529976
0.000462337
0.000507237
0.000537083
0.000509292
0.000529938
0.000462302
0.0005072
0.000537083
0.000509292
0.000529938
0.000462302
0.0005072
0.00053712
0.00050933
0.000529976
0.000462337
0.000507237
0.000537133
0.000509342
0.000529989
0.000462349
0.00050725
0.000537292
0.0005095
0.000530151
0.000462495
0.00050741
0.00053733
0.000509538
0.000530191
0.00046253
0.00050745
0.000537807
0.000510011
0.000530676
0.000462968
0.000507927
0.000537905
0.000510107
0.000530776
0.000463057
0.000508026
0.00053934
0.000511539
0.000532231
0.000464385
0.000509457
0.000539553
0.000511749
0.000532445
0.000464577
0.000509669
0.000545234
0.000517521
0.00053819
0.000470164
0.000515565
0.000571502
0.000542318
0.00056445
0.000491952
0.000543343
0.000565553
0.000536255
0.000558429
0.000486071
0.000537181
0.000565328
0.000536032
0.000558202
0.000485866
0.000536956
0.000563799
0.000534503
0.000556652
0.000484444
0.00053543
0.000563695
0.0005344
0.000556546
0.000484349
0.000535324
0.000563187
0.000533894
0.000556027
0.00048388
0.000534814
0.000563146
0.000533853
0.000555985
0.000483842
0.000534773
0.000562976
0.000533685
0.000555812
0.000483685
0.000534602
0.000562963
0.000533671
0.000555798
0.000483673
0.000534588
0.000562923
0.000533631
0.000555757
0.000483635
0.000534547
0.000562923
0.000533631
0.000555757
0.000483635
0.000534547
0.000562963
0.000533671
0.000555798
0.000483673
0.000534588
0.000562976
0.000533685
0.000555812
0.000483685
0.000534602
0.000563146
0.000533853
0.000555985
0.000483842
0.000534773
0.000563187
0.000533894
0.000556027
0.00048388
0.000534814
0.000563695
0.0005344
0.000556546
0.000484349
0.000535324
0.000563799
0.000534503
0.000556652
0.000484444
0.00053543
0.000565328
0.000536032
0.000558202
0.000485866
0.000536956
0.000565553
0.000536255
0.000558429
0.000486071
0.000537181
0.000571502
0.000542318
0.00056445
0.000491952
0.000543343
0.000582789
0.000554729
0.000576536
0.000505284
0.00055982
0.000577135
0.0005489
0.000570796
0.000499545
0.000553911
0.000576919
0.000548684
0.000570578
0.000499344
0.000553692
0.000575431
0.00054718
0.000569064
0.000497925
0.000552186
0.00057533
0.00054708
0.000568961
0.000497831
0.000552083
0.000574833
0.00054658
0.000568453
0.000497361
0.000551578
0.000574793
0.000546541
0.000568412
0.000497323
0.000551537
0.000574627
0.000546374
0.000568242
0.000497166
0.000551368
0.000574614
0.00054636
0.000568228
0.000497153
0.000551354
0.000574575
0.000546321
0.000568188
0.000497116
0.000551314
0.000574575
0.000546321
0.000568188
0.000497116
0.000551314
0.000574614
0.00054636
0.000568228
0.000497153
0.000551354
0.000574627
0.000546374
0.000568242
0.000497166
0.000551368
0.000574793
0.000546541
0.000568412
0.000497323
0.000551537
0.000574833
0.00054658
0.000568453
0.000497361
0.000551578
0.00057533
0.00054708
0.000568961
0.000497831
0.000552083
0.000575431
0.00054718
0.000569064
0.000497925
0.000552186
0.000576919
0.000548684
0.000570578
0.000499344
0.000553692
0.000577135
0.0005489
0.000570796
0.000499545
0.000553911
0.000582789
0.000554729
0.000576536
0.000505284
0.00055982
0.000581332
0.000554194
0.000575785
0.000505946
0.00056362
0.000575909
0.000548589
0.000570279
0.000500403
0.000557959
0.000575701
0.00054838
0.000570067
0.000500207
0.000557747
0.000574242
0.000546902
0.000568583
0.000498805
0.000556264
0.000574144
0.000546803
0.000568482
0.000498712
0.000556163
0.000573654
0.000546311
0.000567982
0.000498247
0.000555664
0.000573616
0.000546272
0.000567942
0.00049821
0.000555624
0.000573452
0.000546107
0.000567774
0.000498053
0.000555456
0.000573439
0.000546094
0.000567761
0.000498041
0.000555443
0.0005734
0.000546055
0.000567721
0.000498004
0.000555403
0.0005734
0.000546055
0.000567721
0.000498004
0.000555403
0.000573439
0.000546094
0.000567761
0.000498041
0.000555443
0.000573452
0.000546107
0.000567774
0.000498053
0.000555456
0.000573616
0.000546272
0.000567942
0.00049821
0.000555624
0.000573654
0.000546311
0.000567982
0.000498247
0.000555664
0.000574144
0.000546803
0.000568482
0.000498712
0.000556163
0.000574242
0.000546902
0.000568583
0.000498805
0.000556264
0.000575701
0.00054838
0.000570067
0.000500207
0.000557747
0.000575909
0.000548589
0.000570279
0.000500403
0.000557959
0.000581332
0.000554194
0.000575785
0.000505946
0.00056362
0.00057824
0.000551471
0.000573209
0.00050385
0.000564963
0.000572924
0.000545988
0.000567818
0.000498435
0.000559447
0.000572718
0.000545782
0.000567609
0.000498242
0.000559238
0.00057126
0.000544307
0.000566127
0.000496844
0.000557757
0.000571162
0.000544209
0.000566027
0.000496752
0.000557657
0.000570672
0.000543717
0.000565527
0.000496287
0.000557157
0.000570633
0.000543678
0.000565487
0.00049625
0.000557117
0.000570469
0.000543513
0.000565318
0.000496093
0.000556949
0.000570456
0.0005435
0.000565305
0.000496081
0.000556935
0.000570417
0.00054346
0.000565265
0.000496044
0.000556896
0.000570417
0.00054346
0.000565265
0.000496044
0.000556896
0.000570456
0.0005435
0.000565305
0.000496081
0.000556935
0.000570469
0.000543513
0.000565318
0.000496093
0.000556949
0.000570633
0.000543678
0.000565487
0.00049625
0.000557117
0.000570672
0.000543717
0.000565527
0.000496287
0.000557157
0.000571162
0.000544209
0.000566027
0.000496752
0.000557657
0.00057126
0.000544307
0.000566127
0.000496844
0.000557757
0.000572718
0.000545782
0.000567609
0.000498242
0.000559238
0.000572924
0.000545988
0.000567818
0.000498435
0.000559447
0.00057824
0.000551471
0.000573209
0.00050385
0.000564963
0.000576806
0.00055026
0.000572237
0.000503093
0.000567293
0.000571565
0.000544864
0.000566928
0.000497774
0.00056188
0.000571361
0.000544661
0.000566722
0.000497584
0.000561673
0.000569898
0.000543183
0.000565236
0.000496183
0.000560187
0.000569801
0.000543085
0.000565136
0.000496092
0.000560086
0.000569307
0.00054259
0.000564633
0.000495624
0.000559584
0.000569268
0.000542551
0.000564593
0.000495587
0.000559544
0.000569102
0.000542385
0.000564423
0.000495429
0.000559374
0.000569089
0.000542372
0.000564409
0.000495417
0.000559361
0.00056905
0.000542332
0.000564369
0.000495379
0.00055932
0.00056905
0.000542332
0.000564369
0.000495379
0.00055932
0.000569089
0.000542372
0.000564409
0.000495417
0.000559361
0.000569102
0.000542385
0.000564423
0.000495429
0.000559374
0.000569268
0.000542551
0.000564593
0.000495587
0.000559544
0.000569307
0.00054259
0.000564633
0.000495624
0.000559584
0.000569801
0.000543085
0.000565136
0.000496092
0.000560086
0.000569898
0.000543183
0.000565236
0.000496183
0.000560187
0.000571361
0.000544661
0.000566722
0.000497584
0.000561673
0.000571565
0.000544864
0.000566928
0.000497774
0.00056188
0.000576806
0.00055026
0.000572237
0.000503093
0.000567293
0.000576231
0.000549952
0.000572127
0.000503348
0.000569878
0.000571078
0.000544651
0.000566911
0.000498123
0.000564559
0.000570876
0.000544449
0.000566708
0.000497934
0.000564354
0.00056941
0.00054297
0.00056522
0.000496532
0.000562864
0.000569314
0.000542873
0.000565121
0.000496441
0.000562764
0.000568818
0.000542376
0.000564615
0.00049597
0.000562259
0.000568779
0.000542338
0.000564575
0.000495934
0.000562218
0.000568612
0.00054217
0.000564404
0.000495775
0.000562047
0.000568599
0.000542157
0.000564391
0.000495763
0.000562034
0.000568559
0.000542117
0.00056435
0.000495725
0.000561993
0.000568559
0.000542117
0.00056435
0.000495725
0.000561993
0.000568599
0.000542157
0.000564391
0.000495763
0.000562034
0.000568612
0.00054217
0.000564404
0.000495775
0.000562047
0.000568779
0.000542338
0.000564575
0.000495934
0.000562218
0.000568818
0.000542376
0.000564615
0.00049597
0.000562259
0.000569314
0.000542873
0.000565121
0.000496441
0.000562764
0.00056941
0.00054297
0.00056522
0.000496532
0.000562864
0.000570876
0.000544449
0.000566708
0.000497934
0.000564354
0.000571078
0.000544651
0.000566911
0.000498123
0.000564559
0.000576231
0.000549952
0.000572127
0.000503348
0.000569878
0.000575677
0.000549697
0.000572034
0.00050377
0.000571597
0.000570617
0.000544496
0.000566918
0.000498641
0.000566357
0.000570418
0.000544297
0.000566717
0.000498455
0.000566153
0.000568953
0.000542819
0.00056523
0.000497051
0.000564659
0.000568857
0.000542723
0.000565132
0.000496961
0.000564559
0.000568359
0.000542225
0.000564625
0.000496489
0.000564051
0.000568321
0.000542186
0.000564585
0.000496452
0.00056401
0.000568153
0.000542018
0.000564413
0.000496292
0.000563838
0.00056814
0.000542005
0.0005644
0.00049628
0.000563825
0.0005681
0.000541965
0.000564359
0.000496242
0.000563784
0.0005681
0.000541965
0.000564359
0.000496242
0.000563784
0.00056814
0.000542005
0.0005644
0.00049628
0.000563825
0.000568153
0.000542018
0.000564413
0.000496292
0.000563838
0.000568321
0.000542186
0.000564585
0.000496452
0.00056401
0.000568359
0.000542225
0.000564625
0.000496489
0.000564051
0.000568857
0.000542723
0.000565132
0.000496961
0.000564559
0.000568953
0.000542819
0.00056523
0.000497051
0.000564659
0.000570418
0.000544297
0.000566717
0.000498455
0.000566153
0.000570617
0.000544496
0.000566918
0.000498641
0.000566357
0.000575677
0.000549697
0.000572034
0.00050377
0.000571597
0.000574996
0.000549312
0.0005718
0.000504072
0.000570042
0.00057003
0.00054421
0.000566781
0.000499039
0.000564891
0.000569833
0.000544014
0.000566583
0.000498855
0.00056469
0.00056837
0.000542538
0.000565098
0.000497452
0.000563197
0.000568274
0.000542442
0.000565
0.000497361
0.000563098
0.000567775
0.000541943
0.000564492
0.000496888
0.000562588
0.000567737
0.000541904
0.000564453
0.000496851
0.000562548
0.000567568
0.000541735
0.00056428
0.000496691
0.000562375
0.000567555
0.000541723
0.000564267
0.000496679
0.000562361
0.000567515
0.000541682
0.000564226
0.00049664
0.00056232
0.000567515
0.000541682
0.000564226
0.00049664
0.00056232
0.000567555
0.000541723
0.000564267
0.000496679
0.000562361
0.000567568
0.000541735
0.00056428
0.000496691
0.000562375
0.000567737
0.000541904
0.000564453
0.000496851
0.000562548
0.000567775
0.000541943
0.000564492
0.000496888
0.000562588
0.000568274
0.000542442
0.000565
0.000497361
0.000563098
0.00056837
0.000542538
0.000565098
0.000497452
0.000563197
0.000569833
0.000544014
0.000566583
0.000498855
0.00056469
0.00057003
0.00054421
0.000566781
0.000499039
0.000564891
0.000574996
0.000549312
0.0005718
0.000504072
0.000570042
0.000574287
0.000548883
0.000571516
0.000504237
0.000567559
0.00056941
0.000543877
0.000566593
0.000499297
0.000562498
0.000569216
0.000543683
0.000566397
0.000499116
0.0005623
0.000567754
0.000542209
0.000564914
0.000497713
0.00056081
0.000567659
0.000542114
0.000564817
0.000497623
0.000560712
0.000567159
0.000541614
0.000564308
0.000497148
0.000560201
0.000567121
0.000541576
0.000564268
0.000497112
0.000560161
0.000566951
0.000541406
0.000564095
0.000496951
0.000559987
0.000566938
0.000541393
0.000564082
0.000496939
0.000559974
0.000566898
0.000541353
0.00056404
0.0004969
0.000559932
0.000566898
0.000541353
0.00056404
0.0004969
0.000559932
0.000566938
0.000541393
0.000564082
0.000496939
0.000559974
0.000566951
0.000541406
0.000564095
0.000496951
0.000559987
0.000567121
0.000541576
0.000564268
0.000497112
0.000560161
0.000567159
0.000541614
0.000564308
0.000497148
0.000560201
0.000567659
0.000542114
0.000564817
0.000497623
0.000560712
0.000567754
0.000542209
0.000564914
0.000497713
0.00056081
0.000569216
0.000543683
0.000566397
0.000499116
0.0005623
0.00056941
0.000543877
0.000566593
0.000499297
0.000562498
0.000574287
0.000548883
0.000571516
0.000504237
0.000567559
0.000573606
0.000548472
0.000571245
0.000504311
0.000565352
0.000568817
0.000543558
0.000566414
0.000499463
0.00056038
0.000568625
0.000543368
0.00056622
0.000499284
0.000560185
0.000567164
0.000541896
0.00056474
0.000497883
0.000558698
0.000567069
0.000541801
0.000564643
0.000497793
0.0005586
0.000566568
0.0005413
0.000564133
0.000497317
0.000558089
0.00056653
0.000541262
0.000564093
0.000497281
0.000558049
0.00056636
0.000541092
0.000563919
0.000497119
0.000557875
0.000566347
0.000541079
0.000563906
0.000497107
0.000557861
0.000566306
0.000541038
0.000563864
0.000497068
0.000557819
0.000566306
0.000541038
0.000563864
0.000497068
0.000557819
0.000566347
0.000541079
0.000563906
0.000497107
0.000557861
0.00056636
0.000541092
0.000563919
0.000497119
0.000557875
0.00056653
0.000541262
0.000564093
0.000497281
0.000558049
0.000566568
0.0005413
0.000564133
0.000497317
0.000558089
0.000567069
0.000541801
0.000564643
0.000497793
0.0005586
0.000567164
0.000541896
0.00056474
0.000497883
0.000558698
0.000568625
0.000543368
0.00056622
0.000499284
0.000560185
0.000568817
0.000543558
0.000566414
0.000499463
0.00056038
0.000573606
0.000548472
0.000571245
0.000504311
0.000565352
0.000572956
0.000548084
0.00057099
0.000504316
0.000563422
0.000568251
0.000543261
0.000566249
0.000499558
0.000558536
0.000568062
0.000543072
0.000566058
0.000499382
0.000558343
0.000566603
0.000541603
0.00056458
0.000497982
0.00055686
0.000566509
0.000541509
0.000564484
0.000497893
0.000556762
0.000566007
0.000541007
0.000563973
0.000497416
0.00055625
0.000565969
0.000540969
0.000563934
0.00049738
0.000556211
0.000565798
0.000540798
0.000563759
0.000497217
0.000556036
0.000565785
0.000540785
0.000563746
0.000497205
0.000556022
0.000565744
0.000540745
0.000563704
0.000497166
0.00055598
0.000565744
0.000540745
0.000563704
0.000497166
0.00055598
0.000565785
0.000540785
0.000563746
0.000497205
0.000556022
0.000565798
0.000540798
0.000563759
0.000497217
0.000556036
0.000565969
0.000540969
0.000563934
0.00049738
0.000556211
0.000566007
0.000541007
0.000563973
0.000497416
0.00055625
0.000566509
0.000541509
0.000564484
0.000497893
0.000556762
0.000566603
0.000541603
0.00056458
0.000497982
0.00055686
0.000568062
0.000543072
0.000566058
0.000499382
0.000558343
0.000568251
0.000543261
0.000566249
0.000499558
0.000558536
0.000572956
0.000548084
0.00057099
0.000504316
0.000563422
0.000572327
0.00054771
0.000570745
0.000504251
0.000561558
0.000567705
0.000542975
0.000566092
0.000499583
0.000556755
0.000567518
0.000542789
0.000565904
0.000499408
0.000556565
0.000566062
0.000541323
0.000564428
0.000498011
0.000555085
0.000565968
0.00054123
0.000564333
0.000497923
0.000554989
0.000565465
0.000540727
0.000563821
0.000497445
0.000554476
0.000565427
0.000540689
0.000563782
0.000497409
0.000554436
0.000565255
0.000540517
0.000563606
0.000497246
0.000554261
0.000565242
0.000540505
0.000563593
0.000497233
0.000554247
0.000565201
0.000540464
0.000563551
0.000497194
0.000554205
0.000565201
0.000540464
0.000563551
0.000497194
0.000554205
0.000565242
0.000540505
0.000563593
0.000497233
0.000554247
0.000565255
0.000540517
0.000563606
0.000497246
0.000554261
0.000565427
0.000540689
0.000563782
0.000497409
0.000554436
0.000565465
0.000540727
0.000563821
0.000497445
0.000554476
0.000565968
0.00054123
0.000564333
0.000497923
0.000554989
0.000566062
0.000541323
0.000564428
0.000498011
0.000555085
0.000567518
0.000542789
0.000565904
0.000499408
0.000556565
0.000567705
0.000542975
0.000566092
0.000499583
0.000556755
0.000572327
0.00054771
0.000570745
0.000504251
0.000561558
0.000571714
0.000547346
0.000570507
0.000504115
0.000559687
0.000567174
0.000542698
0.00056594
0.000499534
0.000554965
0.00056699
0.000542514
0.000565754
0.000499362
0.000554778
0.000565536
0.000541051
0.000564282
0.000497967
0.000553303
0.000565443
0.000540959
0.000564187
0.00049788
0.000553207
0.000564939
0.000540455
0.000563674
0.000497401
0.000552694
0.000564901
0.000540417
0.000563635
0.000497365
0.000552654
0.000564729
0.000540245
0.000563459
0.000497201
0.000552478
0.000564716
0.000540233
0.000563446
0.000497189
0.000552465
0.000564674
0.000540191
0.000563404
0.00049715
0.000552422
0.000564674
0.000540191
0.000563404
0.00049715
0.000552422
0.000564716
0.000540233
0.000563446
0.000497189
0.000552465
0.000564729
0.000540245
0.000563459
0.000497201
0.000552478
0.000564901
0.000540417
0.000563635
0.000497365
0.000552654
0.000564939
0.000540455
0.000563674
0.000497401
0.000552694
0.000565443
0.000540959
0.000564187
0.00049788
0.000553207
0.000565536
0.000541051
0.000564282
0.000497967
0.000553303
0.00056699
0.000542514
0.000565754
0.000499362
0.000554778
0.000567174
0.000542698
0.00056594
0.000499534
0.000554965
0.000571714
0.000547346
0.000570507
0.000504115
0.000559687
0.000571118
0.000546992
0.000570276
0.000503908
0.000557823
0.000566659
0.000542429
0.000565794
0.000499413
0.00055318
0.000566476
0.000542248
0.00056561
0.000499243
0.000552995
0.000565026
0.000540788
0.000564141
0.000497852
0.000551525
0.000564933
0.000540696
0.000564047
0.000497765
0.00055143
0.000564428
0.000540192
0.000563534
0.000497286
0.000550916
0.000564391
0.000540154
0.000563495
0.00049725
0.000550877
0.000564217
0.000539982
0.000563318
0.000497086
0.0005507
0.000564205
0.000539969
0.000563305
0.000497073
0.000550687
0.000564163
0.000539927
0.000563263
0.000497034
0.000550645
0.000564163
0.000539927
0.000563263
0.000497034
0.000550645
0.000564205
0.000539969
0.000563305
0.000497073
0.000550687
0.000564217
0.000539982
0.000563318
0.000497086
0.0005507
0.000564391
0.000540154
0.000563495
0.00049725
0.000550877
0.000564428
0.000540192
0.000563534
0.000497286
0.000550916
0.000564933
0.000540696
0.000564047
0.000497765
0.00055143
0.000565026
0.000540788
0.000564141
0.000497852
0.000551525
0.000566476
0.000542248
0.00056561
0.000499243
0.000552995
0.000566659
0.000542429
0.000565794
0.000499413
0.00055318
0.000571118
0.000546992
0.000570276
0.000503908
0.000557823
0.00057054
0.000546649
0.000570055
0.00050363
0.00055598
0.000566158
0.000542169
0.000565656
0.00049922
0.000551415
0.000565978
0.00054199
0.000565474
0.000499052
0.000551233
0.000564531
0.000540534
0.00056401
0.000497665
0.000549768
0.000564439
0.000540443
0.000563916
0.000497579
0.000549673
0.000563934
0.000539938
0.000563402
0.000497099
0.000549159
0.000563896
0.000539901
0.000563363
0.000497064
0.00054912
0.000563722
0.000539727
0.000563186
0.000496899
0.000548943
0.00056371
0.000539715
0.000563173
0.000496887
0.000548929
0.000563668
0.000539673
0.00056313
0.000496847
0.000548887
0.000563668
0.000539673
0.00056313
0.000496847
0.000548887
0.00056371
0.000539715
0.000563173
0.000496887
0.000548929
0.000563722
0.000539727
0.000563186
0.000496899
0.000548943
0.000563896
0.000539901
0.000563363
0.000497064
0.00054912
0.000563934
0.000539938
0.000563402
0.000497099
0.000549159
0.000564439
0.000540443
0.000563916
0.000497579
0.000549673
0.000564531
0.000540534
0.00056401
0.000497665
0.000549768
0.000565978
0.00054199
0.000565474
0.000499052
0.000551233
0.000566158
0.000542169
0.000565656
0.00049922
0.000551415
0.00057054
0.000546649
0.000570055
0.00050363
0.00055598
0.000569979
0.000546318
0.000569846
0.000503283
0.000554081
0.000565674
0.000541918
0.000565527
0.000498957
0.000549592
0.000565496
0.000541741
0.000565348
0.000498791
0.000549412
0.000564052
0.000540289
0.000563888
0.000497408
0.000547952
0.000563961
0.000540199
0.000563795
0.000497323
0.000547859
0.000563455
0.000539693
0.00056328
0.000496843
0.000547344
0.000563417
0.000539656
0.000563241
0.000496808
0.000547306
0.000563243
0.000539483
0.000563064
0.000496643
0.000547128
0.00056323
0.00053947
0.000563051
0.000496631
0.000547115
0.000563188
0.000539428
0.000563008
0.000496591
0.000547072
0.000563188
0.000539428
0.000563008
0.000496591
0.000547072
0.00056323
0.00053947
0.000563051
0.000496631
0.000547115
0.000563243
0.000539483
0.000563064
0.000496643
0.000547128
0.000563417
0.000539656
0.000563241
0.000496808
0.000547306
0.000563455
0.000539693
0.00056328
0.000496843
0.000547344
0.000563961
0.000540199
0.000563795
0.000497323
0.000547859
0.000564052
0.000540289
0.000563888
0.000497408
0.000547952
0.000565496
0.000541741
0.000565348
0.000498791
0.000549412
0.000565674
0.000541918
0.000565527
0.000498957
0.000549592
0.000569979
0.000546318
0.000569846
0.000503283
0.000554081
-1.78283e-05
1.75608e-05
3.76919e-06
8.69724e-07
2.9248e-07
1.883e-07
1.67145e-07
1.62867e-07
1.61899e-07
1.61682e-07
1.6162e-07
1.61595e-07
1.61497e-07
1.61388e-07
1.60523e-07
1.59856e-07
1.5342e-07
1.50649e-07
1.11919e-07
1.07814e-07
-1.79769e-05
1.75551e-05
3.81229e-06
8.81926e-07
2.95276e-07
1.88934e-07
1.67273e-07
1.62883e-07
1.61887e-07
1.61662e-07
1.61599e-07
1.61573e-07
1.61473e-07
1.61362e-07
1.60482e-07
1.59808e-07
1.53301e-07
1.50523e-07
1.11619e-07
1.07602e-07
-1.79767e-05
1.75501e-05
3.81143e-06
8.81941e-07
2.95307e-07
1.88946e-07
1.67277e-07
1.62884e-07
1.61887e-07
1.61662e-07
1.61599e-07
1.61572e-07
1.61473e-07
1.61361e-07
1.60482e-07
1.59807e-07
1.53299e-07
1.50521e-07
1.11616e-07
1.076e-07
-1.79757e-05
1.75166e-05
3.80409e-06
8.81359e-07
2.95325e-07
1.88976e-07
1.67287e-07
1.62886e-07
1.61887e-07
1.61661e-07
1.61597e-07
1.61571e-07
1.61471e-07
1.6136e-07
1.60479e-07
1.59803e-07
1.53292e-07
1.50515e-07
1.11604e-07
1.07594e-07
-1.79751e-05
1.75137e-05
3.80328e-06
8.81251e-07
2.9531e-07
1.88975e-07
1.67287e-07
1.62886e-07
1.61887e-07
1.61661e-07
1.61597e-07
1.61571e-07
1.61471e-07
1.6136e-07
1.60479e-07
1.59803e-07
1.53291e-07
1.50514e-07
1.11604e-07
1.07593e-07
-1.79735e-05
1.75021e-05
3.80011e-06
8.80831e-07
2.95247e-07
1.88968e-07
1.67286e-07
1.62886e-07
1.61887e-07
1.61661e-07
1.61597e-07
1.61571e-07
1.61471e-07
1.6136e-07
1.60479e-07
1.59803e-07
1.53291e-07
1.50514e-07
1.11603e-07
1.07593e-07
-1.79733e-05
1.75011e-05
3.79981e-06
8.80787e-07
2.9524e-07
1.88967e-07
1.67286e-07
1.62886e-07
1.61887e-07
1.61661e-07
1.61597e-07
1.61571e-07
1.61471e-07
1.6136e-07
1.60479e-07
1.59803e-07
1.53291e-07
1.50514e-07
1.11603e-07
1.07593e-07
-1.7973e-05
1.74974e-05
3.79886e-06
8.8066e-07
2.95219e-07
1.88964e-07
1.67286e-07
1.62886e-07
1.61887e-07
1.61661e-07
1.61597e-07
1.61571e-07
1.61471e-07
1.6136e-07
1.60479e-07
1.59803e-07
1.53291e-07
1.50514e-07
1.11603e-07
1.07593e-07
-1.7973e-05
1.74971e-05
3.79878e-06
8.80648e-07
2.95217e-07
1.88964e-07
1.67286e-07
1.62886e-07
1.61887e-07
1.61661e-07
1.61597e-07
1.61571e-07
1.61471e-07
1.6136e-07
1.60479e-07
1.59803e-07
1.53291e-07
1.50514e-07
1.11603e-07
1.07593e-07
-1.79729e-05
1.74963e-05
3.79858e-06
8.80622e-07
2.95213e-07
1.88963e-07
1.67286e-07
1.62886e-07
1.61887e-07
1.61661e-07
1.61597e-07
1.61571e-07
1.61471e-07
1.6136e-07
1.60479e-07
1.59803e-07
1.53291e-07
1.50514e-07
1.11603e-07
1.07593e-07
-1.79729e-05
1.74963e-05
3.79858e-06
8.80622e-07
2.95213e-07
1.88963e-07
1.67286e-07
1.62886e-07
1.61887e-07
1.61661e-07
1.61597e-07
1.61571e-07
1.61471e-07
1.6136e-07
1.60479e-07
1.59803e-07
1.53291e-07
1.50514e-07
1.11603e-07
1.07593e-07
-1.7973e-05
1.74971e-05
3.79878e-06
8.80648e-07
2.95217e-07
1.88964e-07
1.67286e-07
1.62886e-07
1.61887e-07
1.61661e-07
1.61597e-07
1.61571e-07
1.61471e-07
1.6136e-07
1.60479e-07
1.59803e-07
1.53291e-07
1.50514e-07
1.11603e-07
1.07593e-07
-1.7973e-05
1.74974e-05
3.79886e-06
8.8066e-07
2.95219e-07
1.88964e-07
1.67286e-07
1.62886e-07
1.61887e-07
1.61661e-07
1.61597e-07
1.61571e-07
1.61471e-07
1.6136e-07
1.60479e-07
1.59803e-07
1.53291e-07
1.50514e-07
1.11603e-07
1.07593e-07
-1.79733e-05
1.75011e-05
3.79981e-06
8.80787e-07
2.9524e-07
1.88967e-07
1.67286e-07
1.62886e-07
1.61887e-07
1.61661e-07
1.61597e-07
1.61571e-07
1.61471e-07
1.6136e-07
1.60479e-07
1.59803e-07
1.53291e-07
1.50514e-07
1.11603e-07
1.07593e-07
-1.79735e-05
1.75021e-05
3.80011e-06
8.80831e-07
2.95247e-07
1.88968e-07
1.67286e-07
1.62886e-07
1.61887e-07
1.61661e-07
1.61597e-07
1.61571e-07
1.61471e-07
1.6136e-07
1.60479e-07
1.59803e-07
1.53291e-07
1.50514e-07
1.11603e-07
1.07593e-07
-1.79751e-05
1.75137e-05
3.80328e-06
8.81251e-07
2.9531e-07
1.88975e-07
1.67287e-07
1.62886e-07
1.61887e-07
1.61661e-07
1.61597e-07
1.61571e-07
1.61471e-07
1.6136e-07
1.60479e-07
1.59803e-07
1.53291e-07
1.50514e-07
1.11604e-07
1.07593e-07
-1.79757e-05
1.75166e-05
3.80409e-06
8.81359e-07
2.95325e-07
1.88976e-07
1.67287e-07
1.62886e-07
1.61887e-07
1.61661e-07
1.61597e-07
1.61571e-07
1.61471e-07
1.6136e-07
1.60479e-07
1.59803e-07
1.53292e-07
1.50515e-07
1.11604e-07
1.07594e-07
-1.79767e-05
1.75501e-05
3.81143e-06
8.81941e-07
2.95307e-07
1.88946e-07
1.67277e-07
1.62884e-07
1.61887e-07
1.61662e-07
1.61599e-07
1.61572e-07
1.61473e-07
1.61361e-07
1.60482e-07
1.59807e-07
1.53299e-07
1.50521e-07
1.11616e-07
1.076e-07
-1.79769e-05
1.75551e-05
3.81229e-06
8.81926e-07
2.95276e-07
1.88934e-07
1.67273e-07
1.62883e-07
1.61887e-07
1.61662e-07
1.61599e-07
1.61573e-07
1.61473e-07
1.61362e-07
1.60482e-07
1.59808e-07
1.53301e-07
1.50523e-07
1.11619e-07
1.07602e-07
-1.78283e-05
1.75608e-05
3.76919e-06
8.69724e-07
2.9248e-07
1.883e-07
1.67145e-07
1.62867e-07
1.61899e-07
1.61682e-07
1.6162e-07
1.61595e-07
1.61497e-07
1.61388e-07
1.60523e-07
1.59856e-07
1.5342e-07
1.50649e-07
1.11919e-07
1.07814e-07
-1.74869e-05
1.77513e-05
3.80398e-06
8.76847e-07
2.93884e-07
1.88591e-07
1.67206e-07
1.62936e-07
1.61992e-07
1.6177e-07
1.61708e-07
1.61682e-07
1.61584e-07
1.61472e-07
1.60568e-07
1.59838e-07
1.53338e-07
1.50542e-07
1.11324e-07
1.0719e-07
-1.76281e-05
1.7746e-05
3.84754e-06
8.89179e-07
2.96713e-07
1.89232e-07
1.67337e-07
1.62949e-07
1.61979e-07
1.61751e-07
1.61687e-07
1.61661e-07
1.61559e-07
1.61446e-07
1.60526e-07
1.59789e-07
1.53218e-07
1.50415e-07
1.1102e-07
1.06974e-07
-1.76277e-05
1.77409e-05
3.84667e-06
8.89194e-07
2.96743e-07
1.89245e-07
1.67341e-07
1.6295e-07
1.61979e-07
1.61751e-07
1.61687e-07
1.6166e-07
1.61559e-07
1.61446e-07
1.60525e-07
1.59788e-07
1.53216e-07
1.50413e-07
1.11017e-07
1.06972e-07
-1.76254e-05
1.77071e-05
3.83926e-06
8.88607e-07
2.96762e-07
1.89275e-07
1.67351e-07
1.62952e-07