/*--------------------------------*- C++ -*----------------------------------*\
  =========                 |
  \\      /  F ield         | OpenFOAM: The Open Source CFD Toolbox
   \\    /   O peration     | Website:  https://openfoam.org
    \\  /    A nd           | Version:  8
     \\/     M anipulation  |
\*---------------------------------------------------------------------------*/
FoamFile
{
    version     2.0;
    format      ascii;
    class       volScalarField;
    location    "2.8";
    object      p;
}
// * * * * * * * * * * * * * * * * * * * * * * * * * * * * * * * * * * * * * //

dimensions      [0 2 -2 0 0 0 0];

internalField   nonuniform List<scalar> 
180000
(
0.000904475
0.000843269
0.000881935
0.000750996
0.000820421
0.00088996
0.000828987
0.000867369
0.000737758
0.00080603
0.000889229
0.000828289
0.000866637
0.000737146
0.000805339
0.000885076
0.000824295
0.000862467
0.000733623
0.000801425
0.000884615
0.000823856
0.000862003
0.000733238
0.000800987
0.000882797
0.00082212
0.000860173
0.000731714
0.000799273
0.000882556
0.000821891
0.000859929
0.000731512
0.000799043
0.000881762
0.000821133
0.000859127
0.000730846
0.000798291
0.000881664
0.000821039
0.000859027
0.000730763
0.000798197
0.00088144
0.000820826
0.000858801
0.000730575
0.000797984
0.00088144
0.000820826
0.000858801
0.000730575
0.000797984
0.000881664
0.000821039
0.000859027
0.000730763
0.000798197
0.000881762
0.000821133
0.000859127
0.000730846
0.000798291
0.000882556
0.000821891
0.000859929
0.000731512
0.000799043
0.000882797
0.00082212
0.000860173
0.000731714
0.000799273
0.000884615
0.000823856
0.000862003
0.000733238
0.000800987
0.000885076
0.000824295
0.000862467
0.000733623
0.000801425
0.000889229
0.000828289
0.000866637
0.000737146
0.000805339
0.00088996
0.000828987
0.000867369
0.000737758
0.00080603
0.000904475
0.000843269
0.000881935
0.000750996
0.000820421
0.000736397
0.000708281
0.000726979
0.000657991
0.000697272
0.000730122
0.000701208
0.000720344
0.00065025
0.000689809
0.0007298
0.000700856
0.000720004
0.000649887
0.000689444
0.000727924
0.0006988
0.000718023
0.000647757
0.000687337
0.000727717
0.000698575
0.000717802
0.000647525
0.000687102
0.000726889
0.000697674
0.000716925
0.000646598
0.000686173
0.000726779
0.000697556
0.000716809
0.000646476
0.000686048
0.000726416
0.000697162
0.000716423
0.00064607
0.00068564
0.000726371
0.000697113
0.000716376
0.00064602
0.000685589
0.000726268
0.000697002
0.000716267
0.000645905
0.000685473
0.000726268
0.000697002
0.000716267
0.000645905
0.000685473
0.000726371
0.000697113
0.000716376
0.00064602
0.000685589
0.000726416
0.000697162
0.000716423
0.00064607
0.00068564
0.000726779
0.000697556
0.000716809
0.000646476
0.000686048
0.000726889
0.000697674
0.000716925
0.000646598
0.000686173
0.000727717
0.000698575
0.000717802
0.000647525
0.000687102
0.000727924
0.0006988
0.000718023
0.000647757
0.000687337
0.0007298
0.000700856
0.000720004
0.000649887
0.000689444
0.000730122
0.000701208
0.000720344
0.00065025
0.000689809
0.000736397
0.000708281
0.000726979
0.000657991
0.000697272
0.000528721
0.000506321
0.000521666
0.000467635
0.000500734
0.000523663
0.000500898
0.000516427
0.000462002
0.00049508
0.000523403
0.000500628
0.000516159
0.000461736
0.000494803
0.000521862
0.000499016
0.000514563
0.000460144
0.000493164
0.000521693
0.000498842
0.000514387
0.000459972
0.000492984
0.000521014
0.000498137
0.000513682
0.00045928
0.000492262
0.000520925
0.000498045
0.000513589
0.000459189
0.000492166
0.000520627
0.000497737
0.000513279
0.000458886
0.000491849
0.000520591
0.000497699
0.000513241
0.000458849
0.00049181
0.000520507
0.000497612
0.000513154
0.000458763
0.00049172
0.000520507
0.000497612
0.000513154
0.000458763
0.00049172
0.000520591
0.000497699
0.000513241
0.000458849
0.00049181
0.000520627
0.000497737
0.000513279
0.000458886
0.000491849
0.000520925
0.000498045
0.000513589
0.000459189
0.000492166
0.000521014
0.000498137
0.000513682
0.00045928
0.000492262
0.000521693
0.000498842
0.000514387
0.000459972
0.000492984
0.000521862
0.000499016
0.000514563
0.000460144
0.000493164
0.000523403
0.000500628
0.000516159
0.000461736
0.000494803
0.000523663
0.000500898
0.000516427
0.000462002
0.00049508
0.000528721
0.000506321
0.000521666
0.000467635
0.000500734
0.000494453
0.000468182
0.000486274
0.000425334
0.000464853
0.000488399
0.00046205
0.000480141
0.000419405
0.00045859
0.000488087
0.000461744
0.000479826
0.000419124
0.00045828
0.000486238
0.00045991
0.000477951
0.000417427
0.000456445
0.000486037
0.000459713
0.000477745
0.000417245
0.000456243
0.000485224
0.000458912
0.000476919
0.000416508
0.000455436
0.000485118
0.000458809
0.00047681
0.000416412
0.000455329
0.000484762
0.000458459
0.000476448
0.00041609
0.000454975
0.000484719
0.000458416
0.000476403
0.00041605
0.000454931
0.000484618
0.000458317
0.000476301
0.000415959
0.000454831
0.000484618
0.000458317
0.000476301
0.000415959
0.000454831
0.000484719
0.000458416
0.000476403
0.00041605
0.000454931
0.000484762
0.000458459
0.000476448
0.00041609
0.000454975
0.000485118
0.000458809
0.00047681
0.000416412
0.000455329
0.000485224
0.000458912
0.000476919
0.000416508
0.000455436
0.000486037
0.000459713
0.000477745
0.000417245
0.000456243
0.000486238
0.00045991
0.000477951
0.000417427
0.000456445
0.000488087
0.000461744
0.000479826
0.000419124
0.00045828
0.000488399
0.00046205
0.000480141
0.000419405
0.00045859
0.000494453
0.000468182
0.000486274
0.000425334
0.000464853
0.000517514
0.000489743
0.000509216
0.000444103
0.000489241
0.000511136
0.000483281
0.000502755
0.000437864
0.000482663
0.000510805
0.000482955
0.00050242
0.000437565
0.000482333
0.000508827
0.000480993
0.000500413
0.000435751
0.000480367
0.000508612
0.000480781
0.000500194
0.000435557
0.000480152
0.000507742
0.000479925
0.000499309
0.000434768
0.000479287
0.000507629
0.000479814
0.000499193
0.000434666
0.000479173
0.000507248
0.000479439
0.000498805
0.000434321
0.000478793
0.000507202
0.000479393
0.000498757
0.000434278
0.000478746
0.000507094
0.000479288
0.000498648
0.000434181
0.000478639
0.000507094
0.000479288
0.000498648
0.000434181
0.000478639
0.000507202
0.000479393
0.000498757
0.000434278
0.000478746
0.000507248
0.000479439
0.000498805
0.000434321
0.000478793
0.000507629
0.000479814
0.000499193
0.000434666
0.000479173
0.000507742
0.000479925
0.000499309
0.000434768
0.000479287
0.000508612
0.000480781
0.000500194
0.000435557
0.000480152
0.000508827
0.000480993
0.000500413
0.000435751
0.000480367
0.000510805
0.000482955
0.00050242
0.000437565
0.000482333
0.000511136
0.000483281
0.000502755
0.000437864
0.000482663
0.000517514
0.000489743
0.000509216
0.000444103
0.000489241
0.00053025
0.000503068
0.000522617
0.000457608
0.00050636
0.000524059
0.000496748
0.000516329
0.000451445
0.000499929
0.000523734
0.000496425
0.000515999
0.000451147
0.000499601
0.000521774
0.000494467
0.000514006
0.000449318
0.000497631
0.000521561
0.000494257
0.000513789
0.000449123
0.000497415
0.000520698
0.000493401
0.000512908
0.000448327
0.000496547
0.000520586
0.00049329
0.000512793
0.000448224
0.000496433
0.000520208
0.000492915
0.000512407
0.000447875
0.000496052
0.000520162
0.00049287
0.000512359
0.000447833
0.000496005
0.000520055
0.000492764
0.00051225
0.000447734
0.000495897
0.000520055
0.000492764
0.00051225
0.000447734
0.000495897
0.000520162
0.00049287
0.000512359
0.000447833
0.000496005
0.000520208
0.000492915
0.000512407
0.000447875
0.000496052
0.000520586
0.00049329
0.000512793
0.000448224
0.000496433
0.000520698
0.000493401
0.000512908
0.000448327
0.000496547
0.000521561
0.000494257
0.000513789
0.000449123
0.000497415
0.000521774
0.000494467
0.000514006
0.000449318
0.000497631
0.000523734
0.000496425
0.000515999
0.000451147
0.000499601
0.000524059
0.000496748
0.000516329
0.000451445
0.000499929
0.00053025
0.000503068
0.000522617
0.000457608
0.00050636
0.000530115
0.000503688
0.000523185
0.000459068
0.000511106
0.000524138
0.000497575
0.000517112
0.000453088
0.000504894
0.00052382
0.00049726
0.00051679
0.000452795
0.000504572
0.000521889
0.000495327
0.000514825
0.000450982
0.00050262
0.000521681
0.000495121
0.000514612
0.000450789
0.000502407
0.000520829
0.000494274
0.000513743
0.000449999
0.000501546
0.000520719
0.000494165
0.00051363
0.000449898
0.000501433
0.000520345
0.000493795
0.000513248
0.000449552
0.000501055
0.0005203
0.00049375
0.000513202
0.00044951
0.000501008
0.000520195
0.000493646
0.000513094
0.000449412
0.000500901
0.000520195
0.000493646
0.000513094
0.000449412
0.000500901
0.0005203
0.00049375
0.000513202
0.00044951
0.000501008
0.000520345
0.000493795
0.000513248
0.000449552
0.000501055
0.000520719
0.000494165
0.00051363
0.000449898
0.000501433
0.000520829
0.000494274
0.000513743
0.000449999
0.000501546
0.000521681
0.000495121
0.000514612
0.000450789
0.000502407
0.000521889
0.000495327
0.000514825
0.000450982
0.00050262
0.00052382
0.00049726
0.00051679
0.000452795
0.000504572
0.000524138
0.000497575
0.000517112
0.000453088
0.000504894
0.000530115
0.000503688
0.000523185
0.000459068
0.000511106
0.000527442
0.000501432
0.000521072
0.000457381
0.000512761
0.000521592
0.000495458
0.000515134
0.000451544
0.000506699
0.000521279
0.000495147
0.000514816
0.000451255
0.000506381
0.000519354
0.000493223
0.000512859
0.00044945
0.000504432
0.000519147
0.000493018
0.000512648
0.000449259
0.00050422
0.000518297
0.000492175
0.000511781
0.000448471
0.000503359
0.000518187
0.000492066
0.000511669
0.00044837
0.000503247
0.000517814
0.000491697
0.000511288
0.000448025
0.000502868
0.00051777
0.000491653
0.000511242
0.000447983
0.000502822
0.000517664
0.000491548
0.000511134
0.000447886
0.000502715
0.000517664
0.000491548
0.000511134
0.000447886
0.000502715
0.00051777
0.000491653
0.000511242
0.000447983
0.000502822
0.000517814
0.000491697
0.000511288
0.000448025
0.000502868
0.000518187
0.000492066
0.000511669
0.00044837
0.000503247
0.000518297
0.000492175
0.000511781
0.000448471
0.000503359
0.000519147
0.000493018
0.000512648
0.000449259
0.00050422
0.000519354
0.000493223
0.000512859
0.00044945
0.000504432
0.000521279
0.000495147
0.000514816
0.000451255
0.000506381
0.000521592
0.000495458
0.000515134
0.000451544
0.000506699
0.000527442
0.000501432
0.000521072
0.000457381
0.000512761
0.000526163
0.000500424
0.000520289
0.000456793
0.000515158
0.000520406
0.000494553
0.00051445
0.000451064
0.000509205
0.000520095
0.000494245
0.000514135
0.000450778
0.000508889
0.000518167
0.00049232
0.000512176
0.000448972
0.000506934
0.000517961
0.000492116
0.000511965
0.000448782
0.000506723
0.000517108
0.000491271
0.000511097
0.000447993
0.000505858
0.000516999
0.000491164
0.000510985
0.000447892
0.000505746
0.000516625
0.000490794
0.000510603
0.000447546
0.000505366
0.00051658
0.000490749
0.000510557
0.000447505
0.000505319
0.000516475
0.000490645
0.000510449
0.000447407
0.000505212
0.000516475
0.000490645
0.000510449
0.000447407
0.000505212
0.00051658
0.000490749
0.000510557
0.000447505
0.000505319
0.000516625
0.000490794
0.000510603
0.000447546
0.000505366
0.000516999
0.000491164
0.000510985
0.000447892
0.000505746
0.000517108
0.000491271
0.000511097
0.000447993
0.000505858
0.000517961
0.000492116
0.000511965
0.000448782
0.000506723
0.000518167
0.00049232
0.000512176
0.000448972
0.000506934
0.000520095
0.000494245
0.000514135
0.000450778
0.000508889
0.000520406
0.000494553
0.00051445
0.000451064
0.000509205
0.000526163
0.000500424
0.000520289
0.000456793
0.000515158
0.000525821
0.000500357
0.000520433
0.000457201
0.000517842
0.000520159
0.000494588
0.000514695
0.000451572
0.000511987
0.000519851
0.000494283
0.000514382
0.000451289
0.000511672
0.000517922
0.000492359
0.000512424
0.000449482
0.000509712
0.000517716
0.000492155
0.000512214
0.000449292
0.000509501
0.000516862
0.000491309
0.000511343
0.000448501
0.000508632
0.000516753
0.000491202
0.000511232
0.000448401
0.00050852
0.000516379
0.000490831
0.000510849
0.000448054
0.000508138
0.000516334
0.000490787
0.000510803
0.000448012
0.000508091
0.000516228
0.000490682
0.000510695
0.000447914
0.000507983
0.000516228
0.000490682
0.000510695
0.000447914
0.000507983
0.000516334
0.000490787
0.000510803
0.000448012
0.000508091
0.000516379
0.000490831
0.000510849
0.000448054
0.000508138
0.000516753
0.000491202
0.000511232
0.000448401
0.00050852
0.000516862
0.000491309
0.000511343
0.000448501
0.000508632
0.000517716
0.000492155
0.000512214
0.000449292
0.000509501
0.000517922
0.000492359
0.000512424
0.000449482
0.000509712
0.000519851
0.000494283
0.000514382
0.000451289
0.000511672
0.000520159
0.000494588
0.000514695
0.000451572
0.000511987
0.000525821
0.000500357
0.000520433
0.000457201
0.000517842
0.000525573
0.000500402
0.000520664
0.000457808
0.00051967
0.000520011
0.00049474
0.000515031
0.000452282
0.000513899
0.000519706
0.000494438
0.000514722
0.000452001
0.000513586
0.000517779
0.000492515
0.000512766
0.000450194
0.000511621
0.000517574
0.000492313
0.000512557
0.000450005
0.00051141
0.000516719
0.000491467
0.000511686
0.000449213
0.000510538
0.000516611
0.000491359
0.000511575
0.000449112
0.000510426
0.000516235
0.000490988
0.000511192
0.000448765
0.000510042
0.000516191
0.000490944
0.000511146
0.000448723
0.000509996
0.000516085
0.000490839
0.000511037
0.000448625
0.000509887
0.000516085
0.000490839
0.000511037
0.000448625
0.000509887
0.000516191
0.000490944
0.000511146
0.000448723
0.000509996
0.000516235
0.000490988
0.000511192
0.000448765
0.000510042
0.000516611
0.000491359
0.000511575
0.000449112
0.000510426
0.000516719
0.000491467
0.000511686
0.000449213
0.000510538
0.000517574
0.000492313
0.000512557
0.000450005
0.00051141
0.000517779
0.000492515
0.000512766
0.000450194
0.000511621
0.000519706
0.000494438
0.000514722
0.000452001
0.000513586
0.000520011
0.00049474
0.000515031
0.000452282
0.000513899
0.000525573
0.000500402
0.000520664
0.000457808
0.00051967
0.00052521
0.000500329
0.000520764
0.000458312
0.000518428
0.000519749
0.000494773
0.000515237
0.000452888
0.000512756
0.000519446
0.000494474
0.00051493
0.000452609
0.000512446
0.000517521
0.000492554
0.000512977
0.000450803
0.000510484
0.000517317
0.000492353
0.000512769
0.000450615
0.000510275
0.000516462
0.000491506
0.000511898
0.000449821
0.000509402
0.000516354
0.0004914
0.000511787
0.000449721
0.00050929
0.000515978
0.000491028
0.000511404
0.000449373
0.000508906
0.000515934
0.000490984
0.000511358
0.000449332
0.00050886
0.000515828
0.000490879
0.00051125
0.000449233
0.000508751
0.000515828
0.000490879
0.00051125
0.000449233
0.000508751
0.000515934
0.000490984
0.000511358
0.000449332
0.00050886
0.000515978
0.000491028
0.000511404
0.000449373
0.000508906
0.000516354
0.0004914
0.000511787
0.000449721
0.00050929
0.000516462
0.000491506
0.000511898
0.000449821
0.000509402
0.000517317
0.000492353
0.000512769
0.000450615
0.000510275
0.000517521
0.000492554
0.000512977
0.000450803
0.000510484
0.000519446
0.000494474
0.00051493
0.000452609
0.000512446
0.000519749
0.000494773
0.000515237
0.000452888
0.000512756
0.00052521
0.000500329
0.000520764
0.000458312
0.000518428
0.000524809
0.000500204
0.000520807
0.000458686
0.000516312
0.000519444
0.000494751
0.000515381
0.000453362
0.000510742
0.000519144
0.000494455
0.000515078
0.000453086
0.000510436
0.000517222
0.000492538
0.000513127
0.000451281
0.000508481
0.000517019
0.000492338
0.00051292
0.000451094
0.000508272
0.000516164
0.000491491
0.000512049
0.000450299
0.000507401
0.000516056
0.000491385
0.000511939
0.000450199
0.00050729
0.00051568
0.000491014
0.000511555
0.000449851
0.000506906
0.000515636
0.00049097
0.00051151
0.00044981
0.00050686
0.000515529
0.000490865
0.000511401
0.000449711
0.000506751
0.000515529
0.000490865
0.000511401
0.000449711
0.000506751
0.000515636
0.00049097
0.00051151
0.00044981
0.00050686
0.00051568
0.000491014
0.000511555
0.000449851
0.000506906
0.000516056
0.000491385
0.000511939
0.000450199
0.00050729
0.000516164
0.000491491
0.000512049
0.000450299
0.000507401
0.000517019
0.000492338
0.00051292
0.000451094
0.000508272
0.000517222
0.000492538
0.000513127
0.000451281
0.000508481
0.000519144
0.000494455
0.000515078
0.000453086
0.000510436
0.000519444
0.000494751
0.000515381
0.000453362
0.000510742
0.000524809
0.000500204
0.000520807
0.000458686
0.000516312
0.000524431
0.000500091
0.000520855
0.000458978
0.000514457
0.000519161
0.000494737
0.000515528
0.000453751
0.000508987
0.000518863
0.000494444
0.000515228
0.000453478
0.000508684
0.000516944
0.000492532
0.000513281
0.000451675
0.000506735
0.000516742
0.000492332
0.000513075
0.000451488
0.000506528
0.000515886
0.000491485
0.000512204
0.000450693
0.000505657
0.000515779
0.000491379
0.000512093
0.000450594
0.000505546
0.000515402
0.000491008
0.00051171
0.000450245
0.000505162
0.000515358
0.000490964
0.000511664
0.000450203
0.000505117
0.000515252
0.000490859
0.000511556
0.000450105
0.000505008
0.000515252
0.000490859
0.000511556
0.000450105
0.000505008
0.000515358
0.000490964
0.000511664
0.000450203
0.000505117
0.000515402
0.000491008
0.00051171
0.000450245
0.000505162
0.000515779
0.000491379
0.000512093
0.000450594
0.000505546
0.000515886
0.000491485
0.000512204
0.000450693
0.000505657
0.000516742
0.000492332
0.000513075
0.000451488
0.000506528
0.000516944
0.000492532
0.000513281
0.000451675
0.000506735
0.000518863
0.000494444
0.000515228
0.000453478
0.000508684
0.000519161
0.000494737
0.000515528
0.000453751
0.000508987
0.000524431
0.000500091
0.000520855
0.000458978
0.000514457
0.000524084
0.0005
0.00052092
0.000459208
0.000512865
0.000518906
0.000494743
0.00051569
0.000454079
0.000507491
0.000518611
0.000494453
0.000515392
0.000453807
0.000507192
0.000516695
0.000492544
0.000513449
0.000452007
0.000505248
0.000516494
0.000492346
0.000513244
0.000451822
0.000505042
0.000515638
0.000491499
0.000512372
0.000451026
0.000504172
0.000515531
0.000491393
0.000512263
0.000450927
0.000504062
0.000515154
0.000491021
0.000511879
0.000450577
0.000503678
0.00051511
0.000490978
0.000511833
0.000450536
0.000503633
0.000515003
0.000490873
0.000511725
0.000450437
0.000503524
0.000515003
0.000490873
0.000511725
0.000450437
0.000503524
0.00051511
0.000490978
0.000511833
0.000450536
0.000503633
0.000515154
0.000491021
0.000511879
0.000450577
0.000503678
0.000515531
0.000491393
0.000512263
0.000450927
0.000504062
0.000515638
0.000491499
0.000512372
0.000451026
0.000504172
0.000516494
0.000492346
0.000513244
0.000451822
0.000505042
0.000516695
0.000492544
0.000513449
0.000452007
0.000505248
0.000518611
0.000494453
0.000515392
0.000453807
0.000507192
0.000518906
0.000494743
0.00051569
0.000454079
0.000507491
0.000524084
0.0005
0.00052092
0.000459208
0.000512865
0.000523759
0.000499922
0.000520994
0.000459379
0.000511337
0.000518672
0.000494761
0.000515859
0.000454344
0.000506057
0.000518379
0.000494473
0.000515564
0.000454075
0.00050576
0.000516467
0.000492568
0.000513625
0.000452279
0.000503822
0.000516267
0.000492371
0.000513421
0.000452094
0.000503618
0.00051541
0.000491524
0.000512549
0.000451298
0.000502749
0.000515303
0.000491419
0.00051244
0.000451199
0.000502639
0.000514926
0.000491047
0.000512056
0.000450849
0.000502255
0.000514883
0.000491004
0.000512011
0.000450808
0.00050221
0.000514776
0.000490899
0.000511902
0.000450709
0.000502101
0.000514776
0.000490899
0.000511902
0.000450709
0.000502101
0.000514883
0.000491004
0.000512011
0.000450808
0.00050221
0.000514926
0.000491047
0.000512056
0.000450849
0.000502255
0.000515303
0.000491419
0.00051244
0.000451199
0.000502639
0.00051541
0.000491524
0.000512549
0.000451298
0.000502749
0.000516267
0.000492371
0.000513421
0.000452094
0.000503618
0.000516467
0.000492568
0.000513625
0.000452279
0.000503822
0.000518379
0.000494473
0.000515564
0.000454075
0.00050576
0.000518672
0.000494761
0.000515859
0.000454344
0.000506057
0.000523759
0.000499922
0.000520994
0.000459379
0.000511337
0.000523452
0.000499854
0.000521075
0.000459487
0.000509802
0.000518453
0.000494786
0.000516032
0.000454545
0.000504613
0.000518163
0.000494501
0.00051574
0.000454279
0.00050432
0.000516255
0.0004926
0.000513805
0.000452486
0.000502389
0.000516055
0.000492404
0.000513602
0.000452302
0.000502185
0.000515199
0.000491557
0.000512731
0.000451506
0.000501317
0.000515092
0.000491452
0.000512622
0.000451407
0.000501208
0.000514715
0.00049108
0.000512238
0.000451057
0.000500824
0.000514671
0.000491037
0.000512193
0.000451017
0.000500779
0.000514565
0.000490932
0.000512084
0.000450918
0.00050067
0.000514565
0.000490932
0.000512084
0.000450918
0.00050067
0.000514671
0.000491037
0.000512193
0.000451017
0.000500779
0.000514715
0.00049108
0.000512238
0.000451057
0.000500824
0.000515092
0.000491452
0.000512622
0.000451407
0.000501208
0.000515199
0.000491557
0.000512731
0.000451506
0.000501317
0.000516055
0.000492404
0.000513602
0.000452302
0.000502185
0.000516255
0.0004926
0.000513805
0.000452486
0.000502389
0.000518163
0.000494501
0.00051574
0.000454279
0.00050432
0.000518453
0.000494786
0.000516032
0.000454545
0.000504613
0.000523452
0.000499854
0.000521075
0.000459487
0.000509802
0.000523162
0.000499795
0.000521163
0.000459532
0.000508273
0.000518249
0.000494818
0.000516212
0.000454682
0.000503173
0.000517962
0.000494535
0.000515922
0.000454418
0.000502883
0.000516058
0.000492639
0.000513992
0.00045263
0.000500958
0.000515859
0.000492444
0.00051379
0.000452447
0.000500756
0.000515003
0.000491597
0.000512918
0.000451651
0.000499889
0.000514897
0.000491493
0.00051281
0.000451553
0.00049978
0.000514519
0.000491121
0.000512425
0.000451202
0.000499397
0.000514476
0.000491078
0.000512381
0.000451162
0.000499351
0.000514369
0.000490973
0.000512272
0.000451063
0.000499243
0.000514369
0.000490973
0.000512272
0.000451063
0.000499243
0.000514476
0.000491078
0.000512381
0.000451162
0.000499351
0.000514519
0.000491121
0.000512425
0.000451202
0.000499397
0.000514897
0.000491493
0.00051281
0.000451553
0.00049978
0.000515003
0.000491597
0.000512918
0.000451651
0.000499889
0.000515859
0.000492444
0.00051379
0.000452447
0.000500756
0.000516058
0.000492639
0.000513992
0.00045263
0.000500958
0.000517962
0.000494535
0.000515922
0.000454418
0.000502883
0.000518249
0.000494818
0.000516212
0.000454682
0.000503173
0.000523162
0.000499795
0.000521163
0.000459532
0.000508273
0.00052289
0.000499746
0.000521261
0.000459515
0.000506763
0.000518062
0.000494858
0.000516398
0.000454756
0.000501749
0.000517777
0.000494577
0.000516111
0.000454495
0.000501461
0.000515877
0.000492687
0.000514186
0.000452711
0.000499545
0.000515679
0.000492492
0.000513985
0.000452529
0.000499343
0.000514823
0.000491646
0.000513114
0.000451733
0.000498477
0.000514717
0.000491542
0.000513006
0.000451636
0.000498369
0.00051434
0.00049117
0.000512621
0.000451285
0.000497985
0.000514296
0.000491127
0.000512576
0.000451245
0.000497941
0.000514189
0.000491021
0.000512467
0.000451146
0.000497832
0.000514189
0.000491021
0.000512467
0.000451146
0.000497832
0.000514296
0.000491127
0.000512576
0.000451245
0.000497941
0.00051434
0.00049117
0.000512621
0.000451285
0.000497985
0.000514717
0.000491542
0.000513006
0.000451636
0.000498369
0.000514823
0.000491646
0.000513114
0.000451733
0.000498477
0.000515679
0.000492492
0.000513985
0.000452529
0.000499343
0.000515877
0.000492687
0.000514186
0.000452711
0.000499545
0.000517777
0.000494577
0.000516111
0.000454495
0.000501461
0.000518062
0.000494858
0.000516398
0.000454756
0.000501749
0.00052289
0.000499746
0.000521261
0.000459515
0.000506763
0.000522635
0.000499707
0.00052137
0.000459437
0.000505205
0.000517889
0.000494906
0.000516594
0.000454767
0.000500276
0.000517607
0.000494628
0.000516309
0.000454508
0.000499992
0.000515712
0.000492742
0.000514389
0.00045273
0.000498083
0.000515515
0.000492549
0.000514189
0.000452549
0.000497883
0.000514659
0.000491703
0.000513318
0.000451754
0.000497017
0.000514554
0.0004916
0.000513211
0.000451657
0.00049691
0.000514176
0.000491227
0.000512826
0.000451307
0.000496527
0.000514133
0.000491184
0.000512781
0.000451266
0.000496482
0.000514026
0.000491079
0.000512672
0.000451167
0.000496374
0.000514026
0.000491079
0.000512672
0.000451167
0.000496374
0.000514133
0.000491184
0.000512781
0.000451266
0.000496482
0.000514176
0.000491227
0.000512826
0.000451307
0.000496527
0.000514554
0.0004916
0.000513211
0.000451657
0.00049691
0.000514659
0.000491703
0.000513318
0.000451754
0.000497017
0.000515515
0.000492549
0.000514189
0.000452549
0.000497883
0.000515712
0.000492742
0.000514389
0.00045273
0.000498083
0.000517607
0.000494628
0.000516309
0.000454508
0.000499992
0.000517889
0.000494906
0.000516594
0.000454767
0.000500276
0.000522635
0.000499707
0.00052137
0.000459437
0.000505205
-1.63831e-05
1.58634e-05
2.89258e-06
7.12911e-07
2.55761e-07
1.81737e-07
1.65603e-07
1.6257e-07
1.6183e-07
1.61668e-07
1.61617e-07
1.61594e-07
1.61496e-07
1.61386e-07
1.60519e-07
1.59851e-07
1.53415e-07
1.50645e-07
1.11916e-07
1.07812e-07
-1.64568e-05
1.5826e-05
2.90957e-06
7.18591e-07
2.57177e-07
1.82084e-07
1.65668e-07
1.62572e-07
1.61814e-07
1.61649e-07
1.61595e-07
1.61572e-07
1.61471e-07
1.61359e-07
1.60478e-07
1.59803e-07
1.53295e-07
1.50518e-07
1.11616e-07
1.076e-07
-1.64515e-05
1.58171e-05
2.90688e-06
7.18243e-07
2.57114e-07
1.82077e-07
1.65667e-07
1.62572e-07
1.61814e-07
1.61648e-07
1.61595e-07
1.61571e-07
1.61471e-07
1.61359e-07
1.60477e-07
1.59802e-07
1.53293e-07
1.50516e-07
1.11613e-07
1.07598e-07
-1.64246e-05
1.5767e-05
2.89175e-06
7.16252e-07
2.56752e-07
1.82035e-07
1.65659e-07
1.62571e-07
1.61813e-07
1.61647e-07
1.61594e-07
1.6157e-07
1.61469e-07
1.61357e-07
1.60475e-07
1.59799e-07
1.53286e-07
1.50509e-07
1.11601e-07
1.07592e-07
-1.64205e-05
1.57605e-05
2.88952e-06
7.15903e-07
2.56676e-07
1.82022e-07
1.65656e-07
1.6257e-07
1.61813e-07
1.61647e-07
1.61594e-07
1.6157e-07
1.61469e-07
1.61357e-07
1.60475e-07
1.59799e-07
1.53286e-07
1.50509e-07
1.11601e-07
1.07591e-07
-1.6406e-05
1.57375e-05
2.88177e-06
7.14746e-07
2.56431e-07
1.81983e-07
1.65648e-07
1.62568e-07
1.61812e-07
1.61647e-07
1.61594e-07
1.6157e-07
1.61469e-07
1.61357e-07
1.60474e-07
1.59798e-07
1.53286e-07
1.50509e-07
1.11601e-07
1.07591e-07
-1.64038e-05
1.57341e-05
2.88062e-06
7.14562e-07
2.56389e-07
1.81976e-07
1.65646e-07
1.62568e-07
1.61812e-07
1.61647e-07
1.61594e-07
1.6157e-07
1.61469e-07
1.61357e-07
1.60474e-07
1.59798e-07
1.53286e-07
1.50509e-07
1.11601e-07
1.07591e-07
-1.63975e-05
1.57241e-05
2.87727e-06
7.1406e-07
2.56282e-07
1.81958e-07
1.65642e-07
1.62567e-07
1.61812e-07
1.61647e-07
1.61594e-07
1.6157e-07
1.61469e-07
1.61357e-07
1.60474e-07
1.59798e-07
1.53286e-07
1.50509e-07
1.11601e-07
1.07591e-07
-1.63966e-05
1.57227e-05
2.87681e-06
7.13986e-07
2.56265e-07
1.81955e-07
1.65641e-07
1.62567e-07
1.61812e-07
1.61647e-07
1.61594e-07
1.6157e-07
1.61469e-07
1.61357e-07
1.60474e-07
1.59798e-07
1.53286e-07
1.50509e-07
1.11601e-07
1.07591e-07
-1.63949e-05
1.57199e-05
2.87588e-06
7.13848e-07
2.56235e-07
1.81951e-07
1.6564e-07
1.62567e-07
1.61812e-07
1.61647e-07
1.61594e-07
1.6157e-07
1.61469e-07
1.61357e-07
1.60474e-07
1.59798e-07
1.53286e-07
1.50509e-07
1.11601e-07
1.07591e-07
-1.63949e-05
1.57199e-05
2.87588e-06
7.13848e-07
2.56235e-07
1.81951e-07
1.6564e-07
1.62567e-07
1.61812e-07
1.61647e-07
1.61594e-07
1.6157e-07
1.61469e-07
1.61357e-07
1.60474e-07
1.59798e-07
1.53286e-07
1.50509e-07
1.11601e-07
1.07591e-07
-1.63966e-05
1.57227e-05
2.87681e-06
7.13986e-07
2.56265e-07
1.81955e-07
1.65641e-07
1.62567e-07
1.61812e-07
1.61647e-07
1.61594e-07
1.6157e-07
1.61469e-07
1.61357e-07
1.60474e-07
1.59798e-07
1.53286e-07
1.50509e-07
1.11601e-07
1.07591e-07
-1.63975e-05
1.57241e-05
2.87727e-06
7.1406e-07
2.56282e-07
1.81958e-07
1.65642e-07
1.62567e-07
1.61812e-07
1.61647e-07
1.61594e-07
1.6157e-07
1.61469e-07
1.61357e-07
1.60474e-07
1.59798e-07
1.53286e-07
1.50509e-07
1.11601e-07
1.07591e-07
-1.64038e-05
1.57341e-05
2.88062e-06
7.14562e-07
2.56389e-07
1.81976e-07
1.65646e-07
1.62568e-07
1.61812e-07
1.61647e-07
1.61594e-07
1.6157e-07
1.61469e-07
1.61357e-07
1.60474e-07
1.59798e-07
1.53286e-07
1.50509e-07
1.11601e-07
1.07591e-07
-1.6406e-05
1.57375e-05
2.88177e-06
7.14746e-07
2.56431e-07
1.81983e-07
1.65648e-07
1.62568e-07
1.61812e-07
1.61647e-07
1.61594e-07
1.6157e-07
1.61469e-07
1.61357e-07
1.60474e-07
1.59798e-07
1.53286e-07
1.50509e-07
1.11601e-07
1.07591e-07
-1.64205e-05
1.57605e-05
2.88952e-06
7.15903e-07
2.56676e-07
1.82022e-07
1.65656e-07
1.6257e-07
1.61813e-07
1.61647e-07
1.61594e-07
1.6157e-07
1.61469e-07
1.61357e-07
1.60475e-07
1.59799e-07
1.53286e-07
1.50509e-07
1.11601e-07
1.07591e-07
-1.64246e-05
1.5767e-05
2.89175e-06
7.16252e-07
2.56752e-07
1.82035e-07
1.65659e-07
1.62571e-07
1.61813e-07
1.61647e-07
1.61594e-07
1.6157e-07
1.61469e-07
1.61357e-07
1.60475e-07
1.59799e-07
1.53286e-07
1.50509e-07
1.11601e-07
1.07592e-07
-1.64515e-05
1.58171e-05
2.90688e-06
7.18243e-07
2.57114e-07
1.82077e-07
1.65667e-07
1.62572e-07
1.61814e-07
1.61648e-07
1.61595e-07
1.61571e-07
1.61471e-07
1.61359e-07
1.60477e-07
1.59802e-07
1.53293e-07
1.50516e-07
1.11613e-07
1.07598e-07
-1.64568e-05
1.5826e-05
2.90957e-06
7.18591e-07
2.57177e-07
1.82084e-07
1.65668e-07
1.62572e-07
1.61814e-07
1.61649e-07
1.61595e-07
1.61572e-07
1.61471e-07
1.61359e-07
1.60478e-07
1.59803e-07
1.53295e-07
1.50518e-07
1.11616e-07
1.076e-07
-1.63831e-05
1.58634e-05
2.89258e-06
7.12911e-07
2.55761e-07
1.81737e-07
1.65603e-07
1.6257e-07
1.6183e-07
1.61668e-07
1.61617e-07
1.61594e-07
1.61496e-07
1.61386e-07
1.60519e-07
1.59851e-07
1.53415e-07
1.50645e-07
1.11916e-07
1.07812e-07
-1.59993e-05
1.60348e-05
2.91875e-06
7.18494e-07
2.56762e-07
1.81965e-07
1.65634e-07
1.62661e-07
1.61921e-07
1.61757e-07
1.61705e-07
1.61681e-07
1.61582e-07
1.6147e-07
1.60564e-07
1.59833e-07
1.53333e-07
1.50537e-07
1.11321e-07
1.07188e-07
-1.6068e-05
1.59974e-05
2.93592e-06
7.24237e-07
2.58195e-07
1.82316e-07
1.65702e-07
1.62662e-07
1.61906e-07
1.61738e-07
1.61684e-07
1.61659e-07
1.61558e-07
1.61444e-07
1.60522e-07
1.59784e-07
1.53212e-07
1.50409e-07
1.11017e-07
1.06972e-07
-1.60625e-05
1.59884e-05
2.93321e-06
7.23885e-07
2.58131e-07
1.8231e-07
1.657e-07
1.62662e-07
1.61906e-07
1.61737e-07
1.61683e-07
1.61659e-07
1.61557e-07
1.61444e-07
1.60521e-07
1.59783e-07
1.5321e-07
1.50407e-07
1.11014e-07