/*--------------------------------*- C++ -*----------------------------------*\
  =========                 |
  \\      /  F ield         | OpenFOAM: The Open Source CFD Toolbox
   \\    /   O peration     | Website:  https://openfoam.org
    \\  /    A nd           | Version:  8
     \\/     M anipulation  |
\*---------------------------------------------------------------------------*/
FoamFile
{
    version     2.0;
    format      ascii;
    class       volScalarField;
    location    "2.8";
    object      S1;
}
// * * * * * * * * * * * * * * * * * * * * * * * * * * * * * * * * * * * * * //

dimensions      [0 1 -1 0 0 0 0];

internalField   nonuniform List<scalar> 
180000
(
-3.56951e-27
-8.18058e-23
-1.36524e-18
-7.08073e-15
5.09665e-10
-3.70189e-27
-8.2304e-23
-1.27518e-18
-2.23979e-15
6.69745e-10
-3.70766e-27
-8.23926e-23
-1.27528e-18
-2.19066e-15
6.71645e-10
-3.72665e-27
-8.26879e-23
-1.27575e-18
-2.03246e-15
6.77823e-10
-3.72779e-27
-8.27178e-23
-1.27654e-18
-2.05451e-15
6.77147e-10
-3.73098e-27
-8.28068e-23
-1.279e-18
-2.12681e-15
6.74942e-10
-3.73134e-27
-8.28187e-23
-1.2794e-18
-2.13999e-15
6.74523e-10
-3.73224e-27
-8.28491e-23
-1.28041e-18
-2.17318e-15
6.73473e-10
-3.73235e-27
-8.28533e-23
-1.28056e-18
-2.17818e-15
6.73314e-10
-3.73256e-27
-8.28607e-23
-1.28081e-18
-2.18672e-15
6.73041e-10
-3.73256e-27
-8.28607e-23
-1.28081e-18
-2.18672e-15
6.73041e-10
-3.73235e-27
-8.28533e-23
-1.28056e-18
-2.17818e-15
6.73314e-10
-3.73224e-27
-8.28491e-23
-1.28041e-18
-2.17318e-15
6.73473e-10
-3.73134e-27
-8.28187e-23
-1.2794e-18
-2.13999e-15
6.74523e-10
-3.73098e-27
-8.28068e-23
-1.279e-18
-2.12681e-15
6.74942e-10
-3.72779e-27
-8.27178e-23
-1.27654e-18
-2.05451e-15
6.77147e-10
-3.72665e-27
-8.26879e-23
-1.27575e-18
-2.03246e-15
6.77823e-10
-3.70766e-27
-8.23926e-23
-1.27528e-18
-2.19066e-15
6.71646e-10
-3.70189e-27
-8.2304e-23
-1.27518e-18
-2.23979e-15
6.69745e-10
-3.56951e-27
-8.18059e-23
-1.36524e-18
-7.08073e-15
5.09665e-10
-3.56948e-27
-8.18038e-23
-1.36499e-18
-6.81267e-15
9.75528e-10
-3.70186e-27
-8.23019e-23
-1.27493e-18
-1.94791e-15
1.18143e-09
-3.70763e-27
-8.23905e-23
-1.27503e-18
-1.89875e-15
1.18354e-09
-3.72662e-27
-8.26857e-23
-1.27551e-18
-1.74108e-15
1.18985e-09
-3.72776e-27
-8.27156e-23
-1.27629e-18
-1.76344e-15
1.18873e-09
-3.73095e-27
-8.28047e-23
-1.27876e-18
-1.83688e-15
1.18497e-09
-3.73131e-27
-8.28165e-23
-1.27915e-18
-1.85024e-15
1.1843e-09
-3.73221e-27
-8.28469e-23
-1.28016e-18
-1.88395e-15
1.18255e-09
-3.73232e-27
-8.28511e-23
-1.28031e-18
-1.88901e-15
1.18229e-09
-3.73253e-27
-8.28585e-23
-1.28056e-18
-1.89769e-15
1.18182e-09
-3.73253e-27
-8.28585e-23
-1.28056e-18
-1.89769e-15
1.18182e-09
-3.73232e-27
-8.28511e-23
-1.28031e-18
-1.88901e-15
1.18229e-09
-3.73221e-27
-8.28469e-23
-1.28016e-18
-1.88395e-15
1.18255e-09
-3.73131e-27
-8.28165e-23
-1.27915e-18
-1.85024e-15
1.1843e-09
-3.73095e-27
-8.28047e-23
-1.27876e-18
-1.83688e-15
1.18497e-09
-3.72776e-27
-8.27156e-23
-1.27629e-18
-1.76344e-15
1.18873e-09
-3.72662e-27
-8.26857e-23
-1.27551e-18
-1.74108e-15
1.18985e-09
-3.70763e-27
-8.23905e-23
-1.27503e-18
-1.89875e-15
1.18354e-09
-3.70186e-27
-8.23019e-23
-1.27493e-18
-1.94791e-15
1.18143e-09
-3.56948e-27
-8.18038e-23
-1.36499e-18
-6.81267e-15
9.75528e-10
-3.56945e-27
-8.17981e-23
-1.36284e-18
-3.89346e-15
5.57606e-09
-3.70183e-27
-8.22961e-23
-1.27269e-18
1.15461e-15
6.09692e-09
-3.7076e-27
-8.23847e-23
-1.27279e-18
1.20328e-15
6.09981e-09
-3.72659e-27
-8.26799e-23
-1.27327e-18
1.354e-15
6.105e-09
-3.72773e-27
-8.27098e-23
-1.27406e-18
1.32879e-15
6.10054e-09
-3.73093e-27
-8.27988e-23
-1.27654e-18
1.24495e-15
6.0849e-09
-3.73128e-27
-8.28107e-23
-1.27694e-18
1.23002e-15
6.08235e-09
-3.73218e-27
-8.28411e-23
-1.27795e-18
1.19163e-15
6.07516e-09
-3.73229e-27
-8.28453e-23
-1.2781e-18
1.18594e-15
6.07417e-09
-3.7325e-27
-8.28527e-23
-1.27835e-18
1.17597e-15
6.07222e-09
-3.7325e-27
-8.28527e-23
-1.27835e-18
1.17597e-15
6.07222e-09
-3.73229e-27
-8.28453e-23
-1.2781e-18
1.18594e-15
6.07417e-09
-3.73218e-27
-8.28411e-23
-1.27795e-18
1.19163e-15
6.07516e-09
-3.73128e-27
-8.28107e-23
-1.27694e-18
1.23002e-15
6.08235e-09
-3.73093e-27
-8.27988e-23
-1.27654e-18
1.24495e-15
6.0849e-09
-3.72773e-27
-8.27098e-23
-1.27406e-18
1.3288e-15
6.10054e-09
-3.72659e-27
-8.26799e-23
-1.27327e-18
1.354e-15
6.105e-09
-3.7076e-27
-8.23847e-23
-1.27279e-18
1.20328e-15
6.09981e-09
-3.70183e-27
-8.22961e-23
-1.27269e-18
1.15461e-15
6.09692e-09
-3.56945e-27
-8.17981e-23
-1.36285e-18
-3.89347e-15
5.57605e-09
-3.56941e-27
-8.17821e-23
-1.35179e-18
1.02139e-14
2.49694e-08
-3.70179e-27
-8.22799e-23
-1.26125e-18
1.58712e-14
2.63867e-08
-3.70757e-27
-8.23685e-23
-1.26136e-18
1.59158e-14
2.63902e-08
-3.72655e-27
-8.26638e-23
-1.2619e-18
1.60313e-14
2.63879e-08
-3.72769e-27
-8.26937e-23
-1.2627e-18
1.59947e-14
2.6373e-08
-3.73089e-27
-8.27828e-23
-1.26522e-18
1.58691e-14
2.63205e-08
-3.73124e-27
-8.27946e-23
-1.26563e-18
1.58479e-14
2.63121e-08
-3.73214e-27
-8.2825e-23
-1.26666e-18
1.57907e-14
2.62879e-08
-3.73226e-27
-8.28292e-23
-1.26681e-18
1.57825e-14
2.62846e-08
-3.73247e-27
-8.28366e-23
-1.26707e-18
1.57673e-14
2.62779e-08
-3.73247e-27
-8.28366e-23
-1.26707e-18
1.57673e-14
2.62779e-08
-3.73226e-27
-8.28292e-23
-1.26681e-18
1.57825e-14
2.62846e-08
-3.73214e-27
-8.2825e-23
-1.26666e-18
1.57907e-14
2.62879e-08
-3.73124e-27
-8.27946e-23
-1.26563e-18
1.58479e-14
2.63121e-08
-3.73089e-27
-8.27828e-23
-1.26522e-18
1.58691e-14
2.63205e-08
-3.72769e-27
-8.26937e-23
-1.2627e-18
1.59947e-14
2.6373e-08
-3.72655e-27
-8.26638e-23
-1.2619e-18
1.60313e-14
2.63879e-08
-3.70757e-27
-8.23685e-23
-1.26136e-18
1.59158e-14
2.63902e-08
-3.70179e-27
-8.22799e-23
-1.26125e-18
1.58712e-14
2.63867e-08
-3.56941e-27
-8.17821e-23
-1.35179e-18
1.02139e-14
2.49694e-08
-3.56934e-27
-8.17399e-23
-1.31425e-18
5.2308e-14
7.34239e-08
-3.70172e-27
-8.22372e-23
-1.22284e-18
5.91662e-14
7.62568e-08
-3.7075e-27
-8.23258e-23
-1.22298e-18
5.91951e-14
7.62572e-08
-3.72648e-27
-8.26213e-23
-1.22372e-18
5.92022e-14
7.62302e-08
-3.72763e-27
-8.26513e-23
-1.22456e-18
5.9137e-14
7.6196e-08
-3.73082e-27
-8.27405e-23
-1.22723e-18
5.89057e-14
7.60761e-08
-3.73117e-27
-8.27524e-23
-1.22765e-18
5.88688e-14
7.60569e-08
-3.73208e-27
-8.27829e-23
-1.22875e-18
5.87636e-14
7.60013e-08
-3.73219e-27
-8.27871e-23
-1.22891e-18
5.87491e-14
7.59936e-08
-3.7324e-27
-8.27945e-23
-1.22919e-18
5.87205e-14
7.59783e-08
-3.7324e-27
-8.27945e-23
-1.22919e-18
5.87205e-14
7.59783e-08
-3.73219e-27
-8.27871e-23
-1.22891e-18
5.87491e-14
7.59936e-08
-3.73208e-27
-8.27829e-23
-1.22875e-18
5.87636e-14
7.60013e-08
-3.73117e-27
-8.27524e-23
-1.22765e-18
5.88688e-14
7.60569e-08
-3.73082e-27
-8.27405e-23
-1.22723e-18
5.89057e-14
7.60761e-08
-3.72763e-27
-8.26513e-23
-1.22456e-18
5.9137e-14
7.6196e-08
-3.72648e-27
-8.26213e-23
-1.22372e-18
5.92022e-14
7.62302e-08
-3.7075e-27
-8.23258e-23
-1.22298e-18
5.91951e-14
7.62572e-08
-3.70172e-27
-8.22372e-23
-1.22284e-18
5.91662e-14
7.62568e-08
-3.56934e-27
-8.17399e-23
-1.31425e-18
5.2308e-14
7.34239e-08
-3.56921e-27
-8.16362e-23
-1.21851e-18
1.4489e-13
1.60728e-07
-3.70159e-27
-8.21327e-23
-1.12578e-18
1.53374e-13
1.65e-07
-3.70737e-27
-8.22214e-23
-1.126e-18
1.53363e-13
1.64988e-07
-3.72635e-27
-8.25176e-23
-1.12726e-18
1.53121e-13
1.64898e-07
-3.7275e-27
-8.25477e-23
-1.12818e-18
1.53e-13
1.64837e-07
-3.73069e-27
-8.26373e-23
-1.13119e-18
1.52564e-13
1.64624e-07
-3.73104e-27
-8.26493e-23
-1.13167e-18
1.52497e-13
1.6459e-07
-3.73195e-27
-8.26799e-23
-1.13292e-18
1.52299e-13
1.64491e-07
-3.73206e-27
-8.26842e-23
-1.13309e-18
1.52273e-13
1.64477e-07
-3.73227e-27
-8.26916e-23
-1.13342e-18
1.52218e-13
1.64449e-07
-3.73227e-27
-8.26916e-23
-1.13342e-18
1.52218e-13
1.64449e-07
-3.73206e-27
-8.26842e-23
-1.13309e-18
1.52273e-13
1.64477e-07
-3.73195e-27
-8.26799e-23
-1.13292e-18
1.52299e-13
1.64491e-07
-3.73104e-27
-8.26493e-23
-1.13167e-18
1.52497e-13
1.6459e-07
-3.73069e-27
-8.26373e-23
-1.13119e-18
1.52564e-13
1.64624e-07
-3.7275e-27
-8.25477e-23
-1.12818e-18
1.53e-13
1.64837e-07
-3.72635e-27
-8.25176e-23
-1.12726e-18
1.53121e-13
1.64898e-07
-3.70737e-27
-8.22214e-23
-1.126e-18
1.53363e-13
1.64988e-07
-3.70159e-27
-8.21327e-23
-1.12578e-18
1.53374e-13
1.65e-07
-3.56921e-27
-8.16362e-23
-1.21851e-18
1.4489e-13
1.60728e-07
-3.56893e-27
-8.14069e-23
-1.01763e-18
3.12058e-13
2.89537e-07
-3.70131e-27
-8.19029e-23
-9.23645e-19
3.22117e-13
2.9476e-07
-3.70709e-27
-8.1992e-23
-9.24042e-19
3.22027e-13
2.94723e-07
-3.72608e-27
-8.22898e-23
-9.26399e-19
3.21303e-13
2.94499e-07
-3.72722e-27
-8.23201e-23
-9.27498e-19
3.21092e-13
2.94405e-07
-3.73042e-27
-8.24107e-23
-9.31185e-19
3.20317e-13
2.94074e-07
-3.73077e-27
-8.24228e-23
-9.31754e-19
3.20201e-13
2.94022e-07
-3.73168e-27
-8.24539e-23
-9.33305e-19
3.19851e-13
2.93868e-07
-3.73179e-27
-8.24582e-23
-9.33522e-19
3.19804e-13
2.93847e-07
-3.732e-27
-8.24658e-23
-9.33928e-19
3.19707e-13
2.93804e-07
-3.732e-27
-8.24658e-23
-9.33928e-19
3.19707e-13
2.93804e-07
-3.73179e-27
-8.24582e-23
-9.33522e-19
3.19804e-13
2.93847e-07
-3.73168e-27
-8.24539e-23
-9.33305e-19
3.19851e-13
2.93868e-07
-3.73077e-27
-8.24228e-23
-9.31754e-19
3.20201e-13
2.94022e-07
-3.73042e-27
-8.24107e-23
-9.31185e-19
3.20317e-13
2.94074e-07
-3.72722e-27
-8.23201e-23
-9.27498e-19
3.21092e-13
2.94405e-07
-3.72608e-27
-8.22898e-23
-9.26399e-19
3.21303e-13
2.94499e-07
-3.70709e-27
-8.1992e-23
-9.24041e-19
3.22027e-13
2.94723e-07
-3.70131e-27
-8.19029e-23
-9.23645e-19
3.22117e-13
2.9476e-07
-3.56893e-27
-8.14069e-23
-1.01763e-18
3.12058e-13
2.89537e-07
-3.56836e-27
-8.095e-23
-6.50011e-19
5.77096e-13
4.58324e-07
-3.70075e-27
-8.14476e-23
-5.55855e-19
5.88037e-13
4.63729e-07
-3.70653e-27
-8.15372e-23
-5.56588e-19
5.8781e-13
4.63647e-07
-3.72552e-27
-8.18385e-23
-5.61005e-19
5.86267e-13
4.63186e-07
-3.72667e-27
-8.18693e-23
-5.62413e-19
5.85922e-13
4.6305e-07
-3.72987e-27
-8.19618e-23
-5.67291e-19
5.84635e-13
4.6257e-07
-3.73022e-27
-8.19741e-23
-5.68025e-19
5.84446e-13
4.62496e-07
-3.73112e-27
-8.20061e-23
-5.70106e-19
5.83865e-13
4.62275e-07
-3.73124e-27
-8.20105e-23
-5.7039e-19
5.83789e-13
4.62245e-07
-3.73145e-27
-8.20183e-23
-5.70945e-19
5.83627e-13
4.62182e-07
-3.73145e-27
-8.20183e-23
-5.70945e-19
5.83627e-13
4.62182e-07
-3.73124e-27
-8.20105e-23
-5.7039e-19
5.83789e-13
4.62245e-07
-3.73112e-27
-8.20061e-23
-5.70106e-19
5.83865e-13
4.62275e-07
-3.73022e-27
-8.19741e-23
-5.68025e-19
5.84446e-13
4.62496e-07
-3.72987e-27
-8.19618e-23
-5.67292e-19
5.84635e-13
4.6257e-07
-3.72667e-27
-8.18693e-23
-5.62413e-19
5.85922e-13
4.6305e-07
-3.72552e-27
-8.18385e-23
-5.61005e-19
5.86267e-13
4.63186e-07
-3.70653e-27
-8.15372e-23
-5.56588e-19
5.8781e-13
4.63647e-07
-3.70075e-27
-8.14476e-23
-5.55855e-19
5.88037e-13
4.63729e-07
-3.56836e-27
-8.095e-23
-6.50012e-19
5.77096e-13
4.58324e-07
-3.56726e-27
-8.01173e-23
-4.0228e-20
9.61838e-13
6.64472e-07
-3.69966e-27
-8.06215e-23
5.13786e-20
9.72271e-13
6.69177e-07
-3.70545e-27
-8.07121e-23
5.00717e-20
9.7183e-13
6.6903e-07
-3.72445e-27
-8.10199e-23
4.21456e-20
9.69007e-13
6.68194e-07
-3.7256e-27
-8.10517e-23
4.0244e-20
9.68472e-13
6.68008e-07
-3.7288e-27
-8.11477e-23
3.34351e-20
9.66455e-13
6.67335e-07
-3.72915e-27
-8.11605e-23
3.24374e-20
9.66164e-13
6.67234e-07
-3.73006e-27
-8.1194e-23
2.95003e-20
9.65258e-13
6.66927e-07
-3.73018e-27
-8.11986e-23
2.9109e-20
9.65141e-13
6.66886e-07
-3.73039e-27
-8.12068e-23
2.83132e-20
9.64887e-13
6.66799e-07
-3.73039e-27
-8.12068e-23
2.83133e-20
9.64887e-13
6.66799e-07
-3.73018e-27
-8.11986e-23
2.9109e-20
9.65141e-13
6.66886e-07
-3.73006e-27
-8.1194e-23
2.95003e-20
9.65258e-13
6.66927e-07
-3.72915e-27
-8.11605e-23
3.24374e-20
9.66164e-13
6.67234e-07
-3.7288e-27
-8.11477e-23
3.3435e-20
9.66455e-13
6.67335e-07
-3.7256e-27
-8.10516e-23
4.02441e-20
9.68472e-13
6.68008e-07
-3.72445e-27
-8.10199e-23
4.21456e-20
9.69007e-13
6.68194e-07
-3.70545e-27
-8.07121e-23
5.00717e-20
9.7183e-13
6.6903e-07
-3.69966e-27
-8.06215e-23
5.13788e-20
9.72271e-13
6.69177e-07
-3.56726e-27
-8.01173e-23
-4.02281e-20
9.61838e-13
6.64472e-07
-3.56525e-27
-7.87066e-23
8.99875e-19
1.48647e-12
9.05089e-07
-3.69768e-27
-7.92274e-23
9.83982e-19
1.49426e-12
9.08132e-07
-3.70348e-27
-7.93199e-23
9.81765e-19
1.49351e-12
9.07895e-07
-3.72251e-27
-7.9639e-23
9.68282e-19
1.48881e-12
9.06523e-07
-3.72365e-27
-7.96722e-23
9.65635e-19
1.48802e-12
9.06275e-07
-3.72687e-27
-7.97741e-23
9.55888e-19
1.48501e-12
9.05354e-07
-3.72723e-27
-7.97877e-23
9.54494e-19
1.48458e-12
9.05219e-07
-3.72814e-27
-7.98238e-23
9.50256e-19
1.48323e-12
9.04803e-07
-3.72825e-27
-7.98287e-23
9.49704e-19
1.48306e-12
9.04748e-07
-3.72846e-27
-7.98377e-23
9.48542e-19
1.48268e-12
9.04631e-07
-3.72846e-27
-7.98377e-23
9.48542e-19
1.48268e-12
9.04631e-07
-3.72825e-27
-7.98287e-23
9.49704e-19
1.48306e-12
9.04748e-07
-3.72814e-27
-7.98238e-23
9.50256e-19
1.48323e-12
9.04803e-07
-3.72723e-27
-7.97877e-23
9.54494e-19
1.48458e-12
9.05219e-07
-3.72687e-27
-7.97741e-23
9.55888e-19
1.48501e-12
9.05354e-07
-3.72365e-27
-7.96722e-23
9.65635e-19
1.48802e-12
9.06275e-07
-3.72251e-27
-7.9639e-23
9.68282e-19
1.48881e-12
9.06523e-07
-3.70348e-27
-7.93199e-23
9.81765e-19
1.49351e-12
9.07895e-07
-3.69768e-27
-7.92274e-23
9.83983e-19
1.49426e-12
9.08132e-07
-3.56525e-27
-7.87066e-23
8.99875e-19
1.48647e-12
9.05089e-07
-3.56185e-27
-7.65167e-23
2.16907e-18
2.00954e-12
9.02758e-07
-3.69435e-27
-7.70689e-23
2.24073e-18
2.01471e-12
9.05863e-07
-3.70015e-27
-7.71643e-23
2.23727e-18
2.01365e-12
9.0563e-07
-3.71921e-27
-7.75012e-23
2.21621e-18
2.00709e-12
9.0428e-07
-3.72036e-27
-7.75367e-23
2.21257e-18
2.00605e-12
9.04034e-07
-3.7236e-27
-7.76477e-23
2.19888e-18
2.00205e-12
9.03123e-07
-3.72396e-27
-7.76625e-23
2.19696e-18
2.00149e-12
9.0299e-07
-3.72488e-27
-7.77026e-23
2.19098e-18
1.9997e-12
9.02578e-07
-3.72499e-27
-7.7708e-23
2.19021e-18
1.99947e-12
9.02524e-07
-3.72521e-27
-7.77182e-23
2.18856e-18
1.99897e-12
9.02408e-07
-3.72521e-27
-7.77182e-23
2.18856e-18
1.99897e-12
9.02408e-07
-3.72499e-27
-7.7708e-23
2.19021e-18
1.99947e-12
9.02524e-07
-3.72488e-27
-7.77026e-23
2.19098e-18
1.9997e-12
9.02578e-07
-3.72396e-27
-7.76625e-23
2.19696e-18
2.00149e-12
9.0299e-07
-3.7236e-27
-7.76477e-23
2.19888e-18
2.00205e-12
9.03123e-07
-3.72036e-27
-7.75367e-23
2.21257e-18
2.00605e-12
9.04034e-07
-3.71921e-27
-7.75012e-23
2.21621e-18
2.00709e-12
9.0428e-07
-3.70015e-27
-7.71643e-23
2.23727e-18
2.01365e-12
9.0563e-07
-3.69434e-27
-7.70689e-23
2.24073e-18
2.01471e-12
9.05863e-07
-3.56185e-27
-7.65167e-23
2.16907e-18
2.00954e-12
9.02758e-07
-3.55642e-27
-7.33471e-23
3.76609e-18
2.53102e-12
9.00495e-07
-3.68903e-27
-7.39507e-23
3.82034e-18
2.53359e-12
9.0366e-07
-3.69485e-27
-7.40503e-23
3.81532e-18
2.53223e-12
9.0343e-07
-3.71397e-27
-7.44132e-23
3.78466e-18
2.52384e-12
9.02101e-07
-3.71513e-27
-7.4452e-23
3.77979e-18
2.52255e-12
9.01858e-07
-3.71839e-27
-7.45761e-23
3.76118e-18
2.51756e-12
9.00956e-07
-3.71875e-27
-7.45926e-23
3.7586e-18
2.51687e-12
9.00825e-07
-3.71968e-27
-7.46385e-23
3.75044e-18
2.51464e-12
9.00417e-07
-3.7198e-27
-7.46446e-23
3.74941e-18
2.51436e-12
9.00364e-07
-3.72002e-27
-7.46564e-23
3.74714e-18
2.51374e-12
9.00249e-07
-3.72002e-27
-7.46564e-23
3.74714e-18
2.51374e-12
9.00249e-07
-3.7198e-27
-7.46446e-23
3.74941e-18
2.51436e-12
9.00364e-07
-3.71968e-27
-7.46385e-23
3.75044e-18
2.51464e-12
9.00417e-07
-3.71875e-27
-7.45926e-23
3.7586e-18
2.51687e-12
9.00825e-07
-3.71839e-27
-7.45761e-23
3.76118e-18
2.51756e-12
9.00956e-07
-3.71513e-27
-7.44519e-23
3.77979e-18
2.52255e-12
9.01858e-07
-3.71397e-27
-7.44132e-23
3.78466e-18
2.52384e-12
9.02101e-07
-3.69485e-27
-7.40503e-23
3.81532e-18
2.53223e-12
9.0343e-07
-3.68903e-27
-7.39507e-23
3.82034e-18
2.53359e-12
9.0366e-07
-3.55642e-27
-7.33471e-23
3.76609e-18
2.53102e-12
9.00495e-07
-3.54819e-27
-6.89984e-23
5.68955e-18
3.05086e-12
8.98293e-07
-3.681e-27
-6.96784e-23
5.72143e-18
3.05084e-12
9.01515e-07
-3.68684e-27
-6.97838e-23
5.71453e-18
3.04919e-12
9.01289e-07
-3.70604e-27
-7.01825e-23
5.67231e-18
3.03898e-12
8.9998e-07
-3.70722e-27
-7.02257e-23
5.66596e-18
3.03744e-12
8.9974e-07
-3.71052e-27
-7.03677e-23
5.64144e-18
3.03148e-12
8.98847e-07
-3.71089e-27
-7.03867e-23
5.63807e-18
3.03065e-12
8.98717e-07
-3.71184e-27
-7.04404e-23
5.62731e-18
3.028e-12
8.98314e-07
-3.71196e-27
-7.04475e-23
5.62595e-18
3.02766e-12
8.98261e-07
-3.71218e-27
-7.04615e-23
5.62295e-18
3.02692e-12
8.98147e-07
-3.71218e-27
-7.04615e-23
5.62295e-18
3.02692e-12
8.98147e-07
-3.71196e-27
-7.04475e-23
5.62595e-18
3.02766e-12
8.98261e-07
-3.71184e-27
-7.04404e-23
5.62731e-18
3.028e-12
8.98314e-07
-3.71089e-27
-7.03867e-23
5.63807e-18
3.03065e-12
8.98717e-07
-3.71052e-27
-7.03677e-23
5.64143e-18
3.03148e-12
8.98847e-07
-3.70722e-27
-7.02257e-23
5.66596e-18
3.03744e-12
8.9974e-07
-3.70604e-27
-7.01825e-23
5.67231e-18
3.03898e-12
8.9998e-07
-3.68684e-27
-6.97838e-23
5.71453e-18
3.04919e-12
9.01289e-07
-3.681e-27
-6.96784e-23
5.72143e-18
3.05084e-12
9.01515e-07
-3.54819e-27
-6.89985e-23
5.68955e-18
3.05086e-12
8.98293e-07
-3.5363e-27
-6.32723e-23
7.938e-18
3.56896e-12
8.96147e-07
-3.6694e-27
-6.40586e-23
7.94254e-18
3.56638e-12
8.99425e-07
-3.67527e-27
-6.41717e-23
7.93345e-18
3.56444e-12
8.99202e-07
-3.6946e-27
-6.46177e-23
7.87771e-18
3.55243e-12
8.97913e-07
-3.69579e-27
-6.46667e-23
7.86965e-18
3.55065e-12
8.97675e-07
-3.69915e-27
-6.48323e-23
7.83825e-18
3.54372e-12
8.96791e-07
-3.69953e-27
-6.48543e-23
7.83398e-18
3.54277e-12
8.96663e-07
-3.70051e-27
-6.49184e-23
7.82017e-18
3.53968e-12
8.96263e-07
-3.70063e-27
-6.49267e-23
7.81845e-18
3.5393e-12
8.96211e-07
-3.70086e-27
-6.49436e-23
7.8146e-18
3.53843e-12
8.96099e-07
-3.70086e-27
-6.49436e-23
7.8146e-18
3.53843e-12
8.96099e-07
-3.70063e-27
-6.49267e-23
7.81845e-18
3.5393e-12
8.96211e-07
-3.70051e-27
-6.49184e-23
7.82017e-18
3.53968e-12
8.96263e-07
-3.69953e-27
-6.48543e-23
7.83398e-18
3.54277e-12
8.96663e-07
-3.69915e-27
-6.48323e-23
7.83825e-18
3.54372e-12
8.96791e-07
-3.69579e-27
-6.46667e-23
7.86965e-18
3.55065e-12
8.97675e-07
-3.6946e-27
-6.46177e-23
7.87771e-18
3.55243e-12
8.97913e-07
-3.67527e-27
-6.41717e-23
7.93345e-18
3.56444e-12
8.99202e-07
-3.6694e-27
-6.40586e-23
7.94254e-18
3.56638e-12
8.99425e-07
-3.5363e-27
-6.32723e-23
7.938e-18
3.56896e-12
8.96147e-07
-3.51971e-27
-5.59715e-23
1.05099e-17
4.08526e-12
8.94053e-07
-3.65326e-27
-5.68992e-23
1.04821e-17
4.08013e-12
8.97385e-07
-3.65916e-27
-5.70221e-23
1.04705e-17
4.0779e-12
8.97166e-07
-3.67866e-27
-5.75284e-23
1.03994e-17
4.06412e-12
8.95895e-07
-3.67987e-27
-5.75848e-23
1.03894e-17
4.0621e-12
8.9566e-07
-3.68333e-27
-5.77803e-23
1.03501e-17
4.05422e-12
8.94785e-07
-3.68371e-27
-5.78062e-23
1.03448e-17
4.05313e-12
8.94658e-07
-3.68473e-27
-5.78835e-23
1.03276e-17
4.04962e-12
8.94262e-07
-3.68486e-27
-5.78934e-23
1.03254e-17
4.04918e-12
8.9421e-07
-3.6851e-27
-5.7914e-23
1.03206e-17
4.0482e-12
8.94099e-07
-3.6851e-27
-5.7914e-23
1.03206e-17
4.0482e-12
8.94099e-07
-3.68486e-27
-5.78934e-23
1.03254e-17
4.04918e-12
8.9421e-07
-3.68473e-27
-5.78835e-23
1.03276e-17
4.04962e-12
8.94262e-07
-3.68371e-27
-5.78062e-23
1.03448e-17
4.05313e-12
8.94658e-07
-3.68333e-27
-5.77803e-23
1.03501e-17
4.05422e-12
8.94785e-07
-3.67987e-27
-5.75848e-23
1.03894e-17
4.0621e-12
8.9566e-07
-3.67866e-27
-5.75284e-23
1.03994e-17
4.06412e-12
8.95895e-07
-3.65916e-27
-5.70221e-23
1.04705e-17
4.0779e-12
8.97166e-07
-3.65326e-27
-5.68992e-23
1.04821e-17
4.08013e-12
8.97385e-07
-3.51971e-27
-5.59715e-23
1.05099e-17
4.08526e-12
8.94053e-07
-3.49729e-27
-4.68997e-23
1.34037e-17
4.59967e-12
8.92008e-07
-3.63145e-27
-4.80092e-23
1.33386e-17
4.59201e-12
8.95392e-07
-3.6374e-27
-4.81442e-23
1.33242e-17
4.5895e-12
8.95177e-07
-3.65715e-27
-4.87255e-23
1.32357e-17
4.57396e-12
8.93924e-07
-3.65839e-27
-4.8791e-23
1.32235e-17
4.57171e-12
8.93691e-07
-3.66196e-27
-4.90236e-23
1.31755e-17
4.56288e-12
8.92825e-07
-3.66236e-27
-4.90543e-23
1.3169e-17
4.56167e-12
8.92698e-07
-3.66343e-27
-4.91479e-23
1.31479e-17
4.55774e-12
8.92307e-07
-3.66356e-27
-4.91597e-23
1.31453e-17
4.55725e-12
8.92256e-07
-3.66382e-27
-4.91849e-23
1.31393e-17
4.55615e-12
8.92145e-07
-3.66382e-27
-4.91849e-23
1.31393e-17
4.55615e-12
8.92145e-07
-3.66356e-27
-4.91597e-23
1.31453e-17
4.55725e-12
8.92256e-07
-3.66343e-27
-4.91479e-23
1.31479e-17
4.55774e-12
8.92307e-07
-3.66236e-27
-4.90543e-23
1.3169e-17
4.56167e-12
8.92698e-07
-3.66196e-27
-4.90236e-23
1.31755e-17
4.56288e-12
8.92825e-07
-3.65839e-27
-4.8791e-23
1.32235e-17
4.57171e-12
8.93691e-07
-3.65715e-27
-4.87255e-23
1.32357e-17
4.57396e-12
8.93924e-07
-3.6374e-27
-4.81442e-23
1.33242e-17
4.5895e-12
8.95177e-07
-3.63145e-27
-4.80092e-23
1.33386e-17
4.59201e-12
8.95392e-07
-3.49729e-27
-4.68997e-23
1.34037e-17
4.59967e-12
8.92008e-07
-3.46777e-27
-3.5862e-23
1.66176e-17
5.1121e-12
8.90008e-07
-3.60277e-27
-3.71987e-23
1.65101e-17
5.10194e-12
8.93442e-07
-3.60878e-27
-3.73484e-23
1.64927e-17
5.09915e-12
8.9323e-07
-3.62884e-27
-3.8021e-23
1.6385e-17
5.08189e-12
8.91995e-07
-3.63011e-27
-3.80975e-23
1.63704e-17
5.0794e-12
8.91764e-07
-3.63384e-27
-3.83751e-23
1.63127e-17
5.06964e-12
8.90906e-07
-3.63426e-27
-3.84116e-23
1.63049e-17
5.0683e-12
8.90781e-07
-3.63539e-27
-3.8525e-23
1.62795e-17
5.06396e-12
8.90393e-07
-3.63554e-27
-3.85392e-23
1.62764e-17
5.06341e-12
8.90342e-07
-3.63581e-27
-3.85699e-23
1.62692e-17
5.06219e-12
8.90233e-07
-3.63581e-27
-3.85699e-23
1.62692e-17
5.06219e-12
8.90233e-07
-3.63554e-27
-3.85392e-23
1.62764e-17
5.06341e-12
8.90342e-07
-3.63539e-27
-3.8525e-23
1.62795e-17
5.06396e-12
8.90393e-07
-3.63426e-27
-3.84116e-23
1.63049e-17
5.0683e-12
8.90781e-07
-3.63384e-27
-3.83751e-23
1.63127e-17
5.06964e-12
8.90906e-07
-3.63011e-27
-3.80975e-23
1.63704e-17
5.0794e-12
8.91764e-07
-3.62884e-27
-3.8021e-23
1.6385e-17
5.08189e-12
8.91995e-07
-3.60877e-27
-3.73484e-23
1.64927e-17
5.09915e-12
8.9323e-07
-3.60277e-27
-3.71987e-23
1.65101e-17
5.10194e-12
8.93442e-07
-3.46777e-27
-3.5862e-23
1.66176e-17
5.1121e-12
8.90008e-07
-3.42975e-27
-2.26647e-23
2.01498e-17
5.62248e-12
8.88047e-07
-3.56586e-27
-2.42793e-23
1.99951e-17
5.60983e-12
8.9153e-07
-3.57193e-27
-2.44465e-23
1.99743e-17
5.60677e-12
8.91322e-07
-3.5924e-27
-2.5228e-23
1.98455e-17
5.5878e-12
8.90104e-07
-3.59373e-27
-2.53176e-23
1.98284e-17
5.58509e-12
8.89875e-07
-3.59765e-27
-2.56489e-23
1.97599e-17
5.57439e-12
8.89025e-07
-3.5981e-27
-2.56923e-23
1.97508e-17
5.57294e-12
8.88901e-07
-3.59932e-27
-2.58293e-23
1.97207e-17
5.56818e-12
8.88517e-07
-3.59947e-27
-2.58463e-23
1.9717e-17
5.56759e-12
8.88467e-07
-3.59977e-27
-2.58836e-23
1.97086e-17
5.56625e-12
8.88359e-07
-3.59977e-27
-2.58836e-23
1.97086e-17
5.56625e-12
8.88359e-07
-3.59947e-27
-2.58463e-23
1.9717e-17
5.56759e-12
8.88467e-07
-3.59932e-27
-2.58293e-23
1.97207e-17
5.56818e-12
8.88517e-07
-3.5981e-27
-2.56923e-23
1.97508e-17
5.57294e-12
8.88901e-07
-3.59765e-27
-2.56489e-23
1.97599e-17
5.57439e-12
8.89025e-07
-3.59373e-27
-2.53176e-23
1.98284e-17
5.58509e-12
8.89875e-07
-3.5924e-27
-2.5228e-23
1.98455e-17
5.5878e-12
8.90104e-07
-3.57193e-27
-2.44464e-23
1.99743e-17
5.60677e-12
8.91322e-07
-3.56585e-27
-2.42792e-23
1.99951e-17
5.60983e-12
8.9153e-07
-3.42975e-27
-2.26647e-23
2.01498e-17
5.62248e-12
8.88047e-07
-3.3817e-27
-7.11509e-24
2.39986e-17
6.13071e-12
8.86118e-07
-3.51924e-27
-9.06363e-24
2.37915e-17
6.11559e-12
8.89649e-07
-3.5254e-27
-9.2514e-24
2.3767e-17
6.11226e-12
8.89444e-07
-3.54639e-27
-1.01611e-23
2.36155e-17
6.09162e-12
8.88243e-07
-3.54778e-27
-1.0266e-23
2.35955e-17
6.08868e-12
8.88016e-07
-3.55195e-27
-1.06604e-23
2.35155e-17
6.07707e-12
8.87174e-07
-3.55242e-27
-1.07119e-23
2.35049e-17
6.07549e-12
8.87051e-07
-3.55375e-27
-1.08766e-23
2.34697e-17
6.07033e-12
8.86671e-07
-3.55392e-27
-1.08969e-23
2.34654e-17
6.06969e-12
8.86621e-07
-3.55425e-27
-1.09421e-23
2.34555e-17
6.06824e-12
8.86514e-07
-3.55425e-27
-1.09421e-23
2.34555e-17
6.06824e-12
8.86514e-07
-3.55392e-27
-1.08969e-23
2.34654e-17
6.06969e-12
8.86621e-07
-3.55375e-27
-1.08766e-23
2.34697e-17
6.07033e-12
8.86671e-07
-3.55242e-27
-1.07119e-23
2.35049e-17
6.07549e-12
8.87051e-07
-3.55195e-27
-1.06604e-23
2.35155e-17
6.07707e-12
8.87174e-07
-3.54777e-27
-1.0266e-23
2.35955e-17
6.08868e-12
8.88016e-07
-3.54639e-27
-1.01611e-23
2.36155e-17
6.09162e-12
8.88243e-07
-3.5254e-27
-9.25138e-24
2.3767e-17
6.11226e-12
8.89444e-07
-3.51923e-27
-9.06361e-24
2.37915e-17
6.11559e-12
8.89649e-07
-3.3817e-27
-7.1151e-24
2.39986e-17
6.13071e-12
8.86118e-07
-3.32197e-27
1.09779e-23
2.8162e-17
6.63668e-12
8.84189e-07
-3.46132e-27
8.63405e-24
2.78975e-17
6.61911e-12
8.87767e-07
-3.4676e-27
8.42242e-24
2.78691e-17
6.61552e-12
8.87565e-07
-3.48922e-27
7.36384e-24
2.7693e-17
6.59323e-12
8.86381e-07
-3.49068e-27
7.24122e-24
2.767e-17
6.59006e-12
8.86156e-07
-3.49516e-27
6.77364e-24
2.75775e-17
6.57755e-12
8.85322e-07
-3.49568e-27
6.71277e-24
2.75653e-17
6.57586e-12
8.852e-07
-3.49715e-27
6.51592e-24
2.75246e-17
6.57029e-12
8.84823e-07
-3.49733e-27
6.49182e-24
2.75196e-17
6.5696e-12
8.84774e-07
-3.4977e-27
6.43761e-24
2.75082e-17
6.56804e-12
8.84668e-07
-3.4977e-27
6.43761e-24
2.75082e-17
6.56804e-12
8.84668e-07
-3.49733e-27
6.49182e-24
2.75196e-17
6.5696e-12
8.84774e-07
-3.49715e-27
6.51592e-24
2.75246e-17
6.57029e-12
8.84823e-07
-3.49568e-27
6.71278e-24
2.75653e-17
6.57586e-12
8.852e-07
-3.49516e-27
6.77364e-24
2.75775e-17
6.57755e-12
8.85322e-07
-3.49068e-27
7.24123e-24
2.767e-17
6.59006e-12
8.86156e-07
-3.48922e-27
7.36385e-24
2.7693e-17
6.59323e-12
8.86381e-07
-3.4676e-27
8.42243e-24
2.78691e-17
6.61552e-12
8.87565e-07
-3.46132e-27
8.63407e-24
2.78975e-17
6.61911e-12
8.87767e-07
-3.32197e-27
1.09779e-23
2.8162e-17
6.63668e-12
8.84189e-07
5.43091e-05
4.61324e-06
-2.8167e-08
-1.57254e-09
-4.31004e-12
5.18721e-15
7.37122e-15
7.39515e-15
7.40031e-15
7.40118e-15
7.40171e-15
7.40506e-15
7.42247e-15
7.44382e-15
7.62121e-15
7.77418e-15
9.38746e-15
1.02666e-14
3.2683e-14
3.82263e-14
6.32275e-05
5.84666e-06
-1.10187e-09
-1.52641e-09
-4.6173e-12
4.9142e-15
7.37041e-15
7.39492e-15
7.40019e-15
7.40106e-15
7.40131e-15
7.40404e-15
7.42181e-15
7.44353e-15
7.6239e-15
7.77866e-15
9.41276e-15
1.02977e-14
3.29706e-14
3.85773e-14
6.3323e-05
5.85797e-06
-8.65802e-10
-1.52488e-09
-4.61573e-12
4.91363e-15
7.37039e-15
7.39492e-15
7.40019e-15
7.40107e-15
7.40132e-15
7.4041e-15
7.42189e-15
7.44362e-15
7.62405e-15
7.77884e-15
9.41326e-15
1.02982e-14
3.29734e-14
3.85802e-14
6.36349e-05
5.8879e-06
-2.18785e-10
-1.51426e-09
-4.58489e-12
4.92712e-15
7.37037e-15
7.39493e-15
7.40021e-15
7.40109e-15
7.40139e-15
7.40439e-15
7.42221e-15
7.44397e-15
7.6246e-15
7.77949e-15
9.4149e-15
1.03e-14
3.29822e-14
3.8588e-14
6.35882e-05
5.88116e-06
-3.76028e-10
-1.51431e-09
-4.58222e-12
4.92895e-15
7.37037e-15
7.39493e-15
7.40021e-15
7.40109e-15
7.40139e-15
7.40439e-15
7.42222e-15
7.44398e-15
7.62462e-15
7.77951e-15
9.41495e-15
1.03e-14
3.29824e-14
3.85881e-14
6.34408e-05
5.85705e-06
-9.30052e-10
-1.51394e-09
-4.57117e-12
4.93613e-15
7.37037e-15
7.39493e-15
7.40021e-15
7.40109e-15
7.40139e-15
7.40441e-15
7.42224e-15
7.444e-15
7.62465e-15
7.77955e-15
9.41503e-15
1.03001e-14
3.29828e-14
3.85883e-14
6.34129e-05
5.85306e-06
-1.02349e-09
-1.51409e-09
-4.57012e-12
4.93695e-15
7.37037e-15
7.39493e-15
7.40021e-15
7.40109e-15
7.40139e-15
7.40441e-15
7.42224e-15
7.444e-15
7.62465e-15
7.77955e-15
9.41503e-15
1.03001e-14
3.29828e-14
3.85883e-14
6.33434e-05
5.84191e-06
-1.28524e-09
-1.51429e-09
-4.56646e-12
4.93946e-15
7.37037e-15
7.39493e-15
7.40021e-15
7.40109e-15
7.40139e-15
7.40441e-15
7.42224e-15
7.444e-15
7.62465e-15
7.77956e-15
9.41504e-15
1.03001e-14
3.29828e-14
3.85883e-14
6.33328e-05
5.84037e-06
-1.32187e-09
-1.51436e-09
-4.56612e-12
4.93973e-15
7.37037e-15
7.39493e-15
7.40021e-15
7.40109e-15
7.40139e-15
7.40441e-15
7.42224e-15
7.444e-15
7.62465e-15
7.77956e-15
9.41504e-15
1.03001e-14
3.29828e-14
3.85883e-14
6.33145e-05
5.83741e-06
-1.39249e-09
-1.51444e-09
-4.56526e-12
4.94033e-15
7.37037e-15
7.39493e-15
7.40021e-15
7.40109e-15
7.40139e-15
7.40441e-15
7.42224e-15
7.444e-15
7.62465e-15
7.77955e-15
9.41503e-15
1.03001e-14
3.29828e-14
3.85883e-14
6.33145e-05
5.83741e-06
-1.39248e-09
-1.51444e-09
-4.56526e-12
4.94033e-15
7.37037e-15
7.39493e-15
7.40021e-15
7.40109e-15
7.40139e-15
7.40441e-15
7.42224e-15
7.444e-15
7.62465e-15
7.77955e-15
9.41503e-15
1.03001e-14
3.29828e-14
3.85883e-14
6.33328e-05
5.84037e-06
-1.32187e-09
-1.51436e-09
-4.56612e-12
4.93973e-15
7.37037e-15
7.39493e-15
7.40021e-15
7.40109e-15
7.40139e-15
7.40441e-15
7.42224e-15
7.444e-15
7.62465e-15
7.77956e-15
9.41504e-15
1.03001e-14
3.29828e-14
3.85883e-14
6.33434e-05
5.84191e-06
-1.28525e-09
-1.51429e-09
-4.56646e-12
4.93946e-15
7.37037e-15
7.39493e-15
7.40021e-15
7.40109e-15
7.40139e-15
7.40441e-15
7.42224e-15
7.444e-15
7.62465e-15
7.77956e-15
9.41504e-15
1.03001e-14
3.29828e-14
3.85883e-14
6.34129e-05
5.85306e-06
-1.02349e-09
-1.51409e-09
-4.57012e-12
4.93695e-15
7.37037e-15
7.39493e-15
7.40021e-15
7.40109e-15
7.40139e-15
7.40441e-15
7.42224e-15
7.444e-15
7.62465e-15
7.77955e-15
9.41503e-15
1.03001e-14
3.29828e-14
3.85883e-14
6.34408e-05
5.85705e-06
-9.30058e-10
-1.51394e-09
-4.57117e-12
4.93613e-15
7.37037e-15
7.39493e-15
7.40021e-15
7.40109e-15
7.40139e-15
7.40441e-15
7.42224e-15
7.444e-15
7.62465e-15
7.77955e-15
9.41503e-15
1.03001e-14
3.29828e-14
3.85883e-14
6.35882e-05
5.88116e-06
-3.76022e-10
-1.51431e-09
-4.58222e-12
4.92895e-15
7.37037e-15
7.39493e-15
7.40021e-15
7.40109e-15
7.40139e-15
7.40439e-15
7.42222e-15
7.44398e-15
7.62462e-15
7.77951e-15
9.41495e-15
1.03e-14
3.29824e-14
3.85881e-14
6.36349e-05
5.8879e-06
-2.18784e-10
-1.51426e-09
-4.58489e-12
4.92712e-15
7.37037e-15
7.39493e-15
7.40021e-15
7.40109e-15
7.40139e-15
7.40439e-15
7.42221e-15
7.44397e-15
7.6246e-15
7.77949e-15
9.4149e-15
1.03e-14
3.29822e-14
3.8588e-14
6.3323e-05
5.85797e-06
-8.65793e-10
-1.52488e-09
-4.61573e-12
4.91363e-15
7.37039e-15
7.39492e-15
7.40019e-15
7.40107e-15
7.40132e-15
7.4041e-15
7.42189e-15
7.44362e-15
7.62405e-15
7.77884e-15
9.41326e-15
1.02982e-14
3.29734e-14
3.85802e-14
6.32275e-05
5.84666e-06
-1.10185e-09
-1.52641e-09
-4.6173e-12
4.9142e-15
7.37041e-15
7.39492e-15
7.40019e-15
7.40106e-15
7.40131e-15
7.40404e-15
7.42181e-15
7.44353e-15
7.6239e-15
7.77866e-15
9.41276e-15
1.02977e-14
3.29706e-14