/*--------------------------------*- C++ -*----------------------------------*\
  =========                 |
  \\      /  F ield         | OpenFOAM: The Open Source CFD Toolbox
   \\    /   O peration     | Website:  https://openfoam.org
    \\  /    A nd           | Version:  8
     \\/     M anipulation  |
\*---------------------------------------------------------------------------*/
FoamFile
{
    version     2.0;
    format      ascii;
    class       volScalarField;
    location    "3.8";
    object      H2;
}
// * * * * * * * * * * * * * * * * * * * * * * * * * * * * * * * * * * * * * //

dimensions      [0 1 -1 0 0 0 0];

internalField   nonuniform List<scalar> 
180000
(
3.36273e-27
9.44927e-22
3.53437e-17
8.90019e-13
1.73806e-08
1.38242e-26
1.23082e-21
4.18708e-17
1.01321e-12
1.93086e-08
1.39263e-26
1.23405e-21
4.19445e-17
1.01447e-12
1.93244e-08
1.41862e-26
1.24275e-21
4.21471e-17
1.01799e-12
1.93684e-08
1.41223e-26
1.24112e-21
4.2108e-17
1.01716e-12
1.93524e-08
1.39211e-26
1.23603e-21
4.19878e-17
1.01464e-12
1.93058e-08
1.38848e-26
1.23507e-21
4.19647e-17
1.01415e-12
1.92965e-08
1.37945e-26
1.23271e-21
4.19084e-17
1.01297e-12
1.92747e-08
1.37807e-26
1.23235e-21
4.18995e-17
1.01278e-12
1.92711e-08
1.37573e-26
1.23173e-21
4.18846e-17
1.01246e-12
1.92651e-08
1.37573e-26
1.23173e-21
4.18846e-17
1.01246e-12
1.92651e-08
1.37807e-26
1.23235e-21
4.18995e-17
1.01278e-12
1.92711e-08
1.37945e-26
1.23271e-21
4.19084e-17
1.01297e-12
1.92747e-08
1.38848e-26
1.23507e-21
4.19647e-17
1.01415e-12
1.92965e-08
1.39211e-26
1.23603e-21
4.19878e-17
1.01464e-12
1.93058e-08
1.41223e-26
1.24112e-21
4.2108e-17
1.01716e-12
1.93524e-08
1.41862e-26
1.24275e-21
4.21471e-17
1.01799e-12
1.93684e-08
1.39263e-26
1.23405e-21
4.19445e-17
1.01447e-12
1.93244e-08
1.38242e-26
1.23082e-21
4.18708e-17
1.01321e-12
1.93086e-08
3.36273e-27
9.44927e-22
3.53437e-17
8.90019e-13
1.73806e-08
3.36192e-27
9.44886e-22
3.53418e-17
8.91367e-13
1.98008e-08
1.38232e-26
1.23077e-21
4.18685e-17
1.01462e-12
2.18617e-08
1.39254e-26
1.234e-21
4.19423e-17
1.01588e-12
2.18765e-08
1.41852e-26
1.2427e-21
4.21449e-17
1.01939e-12
2.19152e-08
1.41213e-26
1.24107e-21
4.21058e-17
1.01855e-12
2.18965e-08
1.39201e-26
1.23597e-21
4.19855e-17
1.01603e-12
2.18417e-08
1.38838e-26
1.23501e-21
4.19624e-17
1.01554e-12
2.1831e-08
1.37935e-26
1.23266e-21
4.19062e-17
1.01435e-12
2.18053e-08
1.37797e-26
1.23229e-21
4.18973e-17
1.01416e-12
2.18011e-08
1.37563e-26
1.23167e-21
4.18824e-17
1.01385e-12
2.17941e-08
1.37563e-26
1.23167e-21
4.18824e-17
1.01385e-12
2.17941e-08
1.37797e-26
1.23229e-21
4.18973e-17
1.01416e-12
2.18011e-08
1.37935e-26
1.23266e-21
4.19062e-17
1.01435e-12
2.18053e-08
1.38838e-26
1.23501e-21
4.19624e-17
1.01554e-12
2.1831e-08
1.39201e-26
1.23597e-21
4.19855e-17
1.01603e-12
2.18417e-08
1.41213e-26
1.24107e-21
4.21058e-17
1.01855e-12
2.18965e-08
1.41852e-26
1.2427e-21
4.21449e-17
1.01939e-12
2.19152e-08
1.39254e-26
1.234e-21
4.19423e-17
1.01588e-12
2.18765e-08
1.38232e-26
1.23077e-21
4.18685e-17
1.01462e-12
2.18617e-08
3.36191e-27
9.44886e-22
3.53418e-17
8.91367e-13
1.98008e-08
3.36123e-27
9.44824e-22
3.53441e-17
9.00778e-13
3.38486e-08
1.38224e-26
1.23069e-21
4.18702e-17
1.02432e-12
3.64394e-08
1.39245e-26
1.23392e-21
4.1944e-17
1.02557e-12
3.64492e-08
1.41844e-26
1.24262e-21
4.21466e-17
1.02905e-12
3.64644e-08
1.41205e-26
1.24099e-21
4.21075e-17
1.0282e-12
3.64344e-08
1.39193e-26
1.23589e-21
4.19872e-17
1.02564e-12
3.6345e-08
1.3883e-26
1.23493e-21
4.19641e-17
1.02514e-12
3.63279e-08
1.37927e-26
1.23258e-21
4.19078e-17
1.02395e-12
3.62859e-08
1.37789e-26
1.23221e-21
4.1899e-17
1.02375e-12
3.6279e-08
1.37555e-26
1.23159e-21
4.18841e-17
1.02343e-12
3.62674e-08
1.37555e-26
1.23159e-21
4.18841e-17
1.02343e-12
3.62674e-08
1.37789e-26
1.23221e-21
4.1899e-17
1.02375e-12
3.6279e-08
1.37927e-26
1.23258e-21
4.19078e-17
1.02395e-12
3.62859e-08
1.3883e-26
1.23493e-21
4.19641e-17
1.02514e-12
3.63279e-08
1.39193e-26
1.23589e-21
4.19872e-17
1.02564e-12
3.6345e-08
1.41205e-26
1.24099e-21
4.21075e-17
1.0282e-12
3.64344e-08
1.41844e-26
1.24262e-21
4.21466e-17
1.02905e-12
3.64644e-08
1.39245e-26
1.23392e-21
4.1944e-17
1.02557e-12
3.64492e-08
1.38224e-26
1.23069e-21
4.18702e-17
1.02432e-12
3.64394e-08
3.36122e-27
9.44823e-22
3.53441e-17
9.00778e-13
3.38486e-08
3.3605e-27
9.44735e-22
3.53647e-17
9.32406e-13
7.24339e-08
1.38214e-26
1.23057e-21
4.18901e-17
1.05658e-12
7.59435e-08
1.39236e-26
1.2338e-21
4.19639e-17
1.05781e-12
7.59422e-08
1.41835e-26
1.2425e-21
4.21663e-17
1.06118e-12
7.5914e-08
1.41196e-26
1.24087e-21
4.21272e-17
1.0603e-12
7.58626e-08
1.39184e-26
1.23577e-21
4.20068e-17
1.05765e-12
7.57089e-08
1.38821e-26
1.23481e-21
4.19837e-17
1.05714e-12
7.56794e-08
1.37918e-26
1.23246e-21
4.19274e-17
1.0559e-12
7.56068e-08
1.3778e-26
1.23209e-21
4.19185e-17
1.0557e-12
7.55948e-08
1.37546e-26
1.23147e-21
4.19036e-17
1.05537e-12
7.55744e-08
1.37546e-26
1.23147e-21
4.19036e-17
1.05537e-12
7.55744e-08
1.3778e-26
1.23209e-21
4.19185e-17
1.0557e-12
7.55948e-08
1.37918e-26
1.23246e-21
4.19274e-17
1.0559e-12
7.56068e-08
1.38821e-26
1.23481e-21
4.19837e-17
1.05714e-12
7.56794e-08
1.39184e-26
1.23577e-21
4.20068e-17
1.05765e-12
7.57089e-08
1.41196e-26
1.24087e-21
4.21272e-17
1.0603e-12
7.58626e-08
1.41835e-26
1.2425e-21
4.21663e-17
1.06118e-12
7.5914e-08
1.39237e-26
1.2338e-21
4.19639e-17
1.05781e-12
7.59422e-08
1.38214e-26
1.23057e-21
4.18901e-17
1.05658e-12
7.59435e-08
3.36049e-27
9.44735e-22
3.53647e-17
9.32406e-13
7.24339e-08
3.35972e-27
9.4465e-22
3.5429e-17
1.00485e-12
1.43171e-07
1.38203e-26
1.23044e-21
4.19535e-17
1.12988e-12
1.47644e-07
1.39227e-26
1.23367e-21
4.20273e-17
1.13106e-12
1.47624e-07
1.41825e-26
1.24237e-21
4.22292e-17
1.1342e-12
1.47532e-07
1.41187e-26
1.24074e-21
4.219e-17
1.13326e-12
1.47453e-07
1.39175e-26
1.23564e-21
4.20695e-17
1.13044e-12
1.47217e-07
1.38812e-26
1.23469e-21
4.20463e-17
1.12989e-12
1.47171e-07
1.37908e-26
1.23233e-21
4.19899e-17
1.12857e-12
1.47059e-07
1.37771e-26
1.23197e-21
4.1981e-17
1.12835e-12
1.4704e-07
1.37536e-26
1.23135e-21
4.19661e-17
1.128e-12
1.47008e-07
1.37536e-26
1.23135e-21
4.19661e-17
1.128e-12
1.47008e-07
1.37771e-26
1.23197e-21
4.1981e-17
1.12835e-12
1.4704e-07
1.37908e-26
1.23233e-21
4.19899e-17
1.12857e-12
1.47059e-07
1.38812e-26
1.23469e-21
4.20463e-17
1.12989e-12
1.47171e-07
1.39175e-26
1.23564e-21
4.20695e-17
1.13044e-12
1.47217e-07
1.41187e-26
1.24074e-21
4.219e-17
1.13326e-12
1.47453e-07
1.41825e-26
1.24237e-21
4.22292e-17
1.1342e-12
1.47532e-07
1.39227e-26
1.23367e-21
4.20273e-17
1.13106e-12
1.47624e-07
1.38203e-26
1.23044e-21
4.19535e-17
1.12988e-12
1.47644e-07
3.35972e-27
9.4465e-22
3.5429e-17
1.00485e-12
1.43171e-07
3.35895e-27
9.44623e-22
3.5575e-17
1.13777e-12
2.47833e-07
1.38191e-26
1.23035e-21
4.20978e-17
1.26357e-12
2.53008e-07
1.39217e-26
1.23359e-21
4.21716e-17
1.26467e-12
2.5296e-07
1.41815e-26
1.24228e-21
4.23726e-17
1.26738e-12
2.52766e-07
1.41177e-26
1.24066e-21
4.23333e-17
1.26635e-12
2.52653e-07
1.39165e-26
1.23556e-21
4.22122e-17
1.26323e-12
2.52319e-07
1.38802e-26
1.2346e-21
4.21889e-17
1.26264e-12
2.52254e-07
1.37899e-26
1.23225e-21
4.21323e-17
1.26118e-12
2.52095e-07
1.37761e-26
1.23188e-21
4.21234e-17
1.26094e-12
2.52068e-07
1.37527e-26
1.23126e-21
4.21083e-17
1.26055e-12
2.52022e-07
1.37527e-26
1.23126e-21
4.21083e-17
1.26055e-12
2.52022e-07
1.37761e-26
1.23188e-21
4.21234e-17
1.26094e-12
2.52068e-07
1.37899e-26
1.23225e-21
4.21323e-17
1.26118e-12
2.52095e-07
1.38802e-26
1.2346e-21
4.21889e-17
1.26264e-12
2.52254e-07
1.39165e-26
1.23556e-21
4.22122e-17
1.26323e-12
2.52319e-07
1.41177e-26
1.24066e-21
4.23333e-17
1.26635e-12
2.52653e-07
1.41815e-26
1.24228e-21
4.23726e-17
1.26738e-12
2.52766e-07
1.39217e-26
1.23359e-21
4.21716e-17
1.26467e-12
2.5296e-07
1.38192e-26
1.23035e-21
4.20978e-17
1.26357e-12
2.53008e-07
3.35895e-27
9.44623e-22
3.5575e-17
1.13777e-12
2.47833e-07
3.35827e-27
9.44736e-22
3.5853e-17
1.35085e-12
3.86387e-07
1.3818e-26
1.23039e-21
4.23728e-17
1.47692e-12
3.9185e-07
1.39208e-26
1.23364e-21
4.24463e-17
1.47789e-12
3.91762e-07
1.41806e-26
1.24233e-21
4.26456e-17
1.4799e-12
3.91396e-07
1.41168e-26
1.2407e-21
4.2606e-17
1.47874e-12
3.91243e-07
1.39156e-26
1.2356e-21
4.2484e-17
1.47519e-12
3.90786e-07
1.38792e-26
1.23465e-21
4.24606e-17
1.47451e-12
3.90697e-07
1.37889e-26
1.23229e-21
4.24035e-17
1.47285e-12
3.9048e-07
1.37752e-26
1.23193e-21
4.23945e-17
1.47258e-12
3.90443e-07
1.37517e-26
1.23131e-21
4.23794e-17
1.47213e-12
3.9038e-07
1.37517e-26
1.23131e-21
4.23794e-17
1.47213e-12
3.9038e-07
1.37752e-26
1.23193e-21
4.23945e-17
1.47258e-12
3.90443e-07
1.37889e-26
1.23229e-21
4.24035e-17
1.47285e-12
3.9048e-07
1.38792e-26
1.23465e-21
4.24606e-17
1.47451e-12
3.90697e-07
1.39156e-26
1.2356e-21
4.2484e-17
1.47519e-12
3.90786e-07
1.41168e-26
1.2407e-21
4.2606e-17
1.47874e-12
3.91243e-07
1.41806e-26
1.24233e-21
4.26456e-17
1.4799e-12
3.91396e-07
1.39208e-26
1.23364e-21
4.24463e-17
1.47789e-12
3.91762e-07
1.3818e-26
1.23039e-21
4.23728e-17
1.47692e-12
3.9185e-07
3.35827e-27
9.44736e-22
3.5853e-17
1.35085e-12
3.86387e-07
3.35785e-27
9.4511e-22
3.6326e-17
1.66387e-12
5.58937e-07
1.38171e-26
1.23068e-21
4.28401e-17
1.78927e-12
5.64171e-07
1.39201e-26
1.23393e-21
4.29132e-17
1.79002e-12
5.64025e-07
1.41799e-26
1.24261e-21
4.31096e-17
1.79098e-12
5.63386e-07
1.4116e-26
1.24099e-21
4.30695e-17
1.78963e-12
5.63183e-07
1.39149e-26
1.23589e-21
4.29459e-17
1.78545e-12
5.62565e-07
1.38785e-26
1.23493e-21
4.29223e-17
1.78466e-12
5.62448e-07
1.37882e-26
1.23257e-21
4.28645e-17
1.78271e-12
5.62156e-07
1.37745e-26
1.23221e-21
4.28554e-17
1.7824e-12
5.62107e-07
1.3751e-26
1.23159e-21
4.284e-17
1.78186e-12
5.62023e-07
1.3751e-26
1.23159e-21
4.284e-17
1.78186e-12
5.62023e-07
1.37745e-26
1.23221e-21
4.28554e-17
1.7824e-12
5.62107e-07
1.37882e-26
1.23257e-21
4.28645e-17
1.78271e-12
5.62156e-07
1.38785e-26
1.23493e-21
4.29223e-17
1.78466e-12
5.62448e-07
1.39149e-26
1.23589e-21
4.29459e-17
1.78545e-12
5.62565e-07
1.4116e-26
1.24099e-21
4.30695e-17
1.78963e-12
5.63183e-07
1.41799e-26
1.24261e-21
4.31096e-17
1.79098e-12
5.63386e-07
1.39201e-26
1.23393e-21
4.29132e-17
1.79002e-12
5.64025e-07
1.38171e-26
1.23068e-21
4.28401e-17
1.78927e-12
5.64171e-07
3.35785e-27
9.4511e-22
3.6326e-17
1.66387e-12
5.58937e-07
3.35797e-27
9.45913e-22
3.70693e-17
2.09672e-12
7.65574e-07
1.38166e-26
1.23138e-21
4.35734e-17
2.21993e-12
7.69926e-07
1.39198e-26
1.23463e-21
4.36457e-17
2.22039e-12
7.69701e-07
1.41796e-26
1.2433e-21
4.38375e-17
2.2198e-12
7.68662e-07
1.41158e-26
1.24168e-21
4.37967e-17
2.2182e-12
7.68397e-07
1.39146e-26
1.23658e-21
4.36707e-17
2.21315e-12
7.6757e-07
1.38783e-26
1.23562e-21
4.36467e-17
2.21223e-12
7.67418e-07
1.37879e-26
1.23326e-21
4.35877e-17
2.20987e-12
7.67029e-07
1.37742e-26
1.2329e-21
4.35785e-17
2.2095e-12
7.66965e-07
1.37507e-26
1.23228e-21
4.35628e-17
2.20885e-12
7.66853e-07
1.37507e-26
1.23228e-21
4.35628e-17
2.20885e-12
7.66853e-07
1.37742e-26
1.2329e-21
4.35785e-17
2.2095e-12
7.66965e-07
1.37879e-26
1.23326e-21
4.35877e-17
2.20987e-12
7.67029e-07
1.38783e-26
1.23562e-21
4.36467e-17
2.21223e-12
7.67418e-07
1.39146e-26
1.23658e-21
4.36707e-17
2.21315e-12
7.6757e-07
1.41158e-26
1.24168e-21
4.37967e-17
2.2182e-12
7.68397e-07
1.41796e-26
1.2433e-21
4.38375e-17
2.2198e-12
7.68662e-07
1.39198e-26
1.23463e-21
4.36457e-17
2.22039e-12
7.69701e-07
1.38166e-26
1.23138e-21
4.35734e-17
2.21993e-12
7.69926e-07
3.35797e-27
9.45913e-22
3.70693e-17
2.09672e-12
7.65574e-07
3.35905e-27
9.47365e-22
3.81705e-17
2.66882e-12
1.00544e-06
1.38169e-26
1.2327e-21
4.4658e-17
2.78767e-12
1.00808e-06
1.39205e-26
1.23596e-21
4.47293e-17
2.78773e-12
1.00776e-06
1.41802e-26
1.24461e-21
4.49141e-17
2.78499e-12
1.00616e-06
1.41164e-26
1.24298e-21
4.48723e-17
2.78304e-12
1.00582e-06
1.39152e-26
1.23788e-21
4.47427e-17
2.77685e-12
1.00473e-06
1.38788e-26
1.23692e-21
4.4718e-17
2.77573e-12
1.00453e-06
1.37885e-26
1.23456e-21
4.46575e-17
2.77285e-12
1.00402e-06
1.37748e-26
1.23419e-21
4.46479e-17
2.7724e-12
1.00394e-06
1.37513e-26
1.23357e-21
4.46318e-17
2.77159e-12
1.00379e-06
1.37513e-26
1.23357e-21
4.46318e-17
2.77159e-12
1.00379e-06
1.37748e-26
1.23419e-21
4.46479e-17
2.7724e-12
1.00394e-06
1.37885e-26
1.23456e-21
4.46575e-17
2.77285e-12
1.00402e-06
1.38788e-26
1.23692e-21
4.4718e-17
2.77573e-12
1.00453e-06
1.39152e-26
1.23788e-21
4.47427e-17
2.77685e-12
1.00473e-06
1.41164e-26
1.24298e-21
4.48723e-17
2.78304e-12
1.00582e-06
1.41802e-26
1.24461e-21
4.49141e-17
2.78499e-12
1.00616e-06
1.39205e-26
1.23596e-21
4.47293e-17
2.78773e-12
1.00776e-06
1.38169e-26
1.2327e-21
4.4658e-17
2.78767e-12
1.00808e-06
3.35905e-27
9.47365e-22
3.81705e-17
2.66882e-12
1.00544e-06
3.36165e-27
9.49686e-22
3.96287e-17
3.23944e-12
1.00309e-06
1.38186e-26
1.23486e-21
4.6093e-17
3.35394e-12
1.00578e-06
1.39225e-26
1.23812e-21
4.61627e-17
3.3536e-12
1.00546e-06
1.41822e-26
1.24675e-21
4.63382e-17
3.34871e-12
1.00388e-06
1.41183e-26
1.24512e-21
4.62951e-17
3.34644e-12
1.00355e-06
1.39172e-26
1.24001e-21
4.61607e-17
3.33911e-12
1.00246e-06
1.38808e-26
1.23905e-21
4.61353e-17
3.3378e-12
1.00227e-06
1.37905e-26
1.23668e-21
4.60726e-17
3.3344e-12
1.00176e-06
1.37767e-26
1.23631e-21
4.60627e-17
3.33386e-12
1.00168e-06
1.37533e-26
1.23569e-21
4.6046e-17
3.3329e-12
1.00154e-06
1.37533e-26
1.23569e-21
4.6046e-17
3.3329e-12
1.00154e-06
1.37767e-26
1.23631e-21
4.60627e-17
3.33386e-12
1.00168e-06
1.37905e-26
1.23668e-21
4.60726e-17
3.3344e-12
1.00176e-06
1.38808e-26
1.23905e-21
4.61353e-17
3.3378e-12
1.00227e-06
1.39172e-26
1.24001e-21
4.61607e-17
3.33911e-12
1.00246e-06
1.41183e-26
1.24512e-21
4.62951e-17
3.34644e-12
1.00355e-06
1.41822e-26
1.24675e-21
4.63382e-17
3.34871e-12
1.00388e-06
1.39225e-26
1.23812e-21
4.61627e-17
3.3536e-12
1.00546e-06
1.38186e-26
1.23486e-21
4.6093e-17
3.35394e-12
1.00578e-06
3.36165e-27
9.49686e-22
3.96287e-17
3.23944e-12
1.00309e-06
3.36648e-27
9.53094e-22
4.14427e-17
3.80857e-12
1.00081e-06
1.38224e-26
1.23807e-21
4.78771e-17
3.91872e-12
1.00355e-06
1.39266e-26
1.24133e-21
4.79448e-17
3.91798e-12
1.00323e-06
1.41862e-26
1.24993e-21
4.81089e-17
3.91098e-12
1.00168e-06
1.41224e-26
1.24829e-21
4.8064e-17
3.90838e-12
1.00134e-06
1.39212e-26
1.24317e-21
4.79238e-17
3.89991e-12
1.00027e-06
1.38848e-26
1.2422e-21
4.78975e-17
3.89842e-12
1.00008e-06
1.37945e-26
1.23983e-21
4.78321e-17
3.89449e-12
9.99576e-07
1.37807e-26
1.23946e-21
4.78218e-17
3.89387e-12
9.99495e-07
1.37573e-26
1.23884e-21
4.78043e-17
3.89277e-12
9.99351e-07
1.37573e-26
1.23884e-21
4.78043e-17
3.89277e-12
9.99351e-07
1.37807e-26
1.23946e-21
4.78218e-17
3.89387e-12
9.99495e-07
1.37945e-26
1.23983e-21
4.78321e-17
3.89449e-12
9.99576e-07
1.38848e-26
1.2422e-21
4.78975e-17
3.89842e-12
1.00008e-06
1.39212e-26
1.24317e-21
4.79238e-17
3.89991e-12
1.00027e-06
1.41224e-26
1.24829e-21
4.8064e-17
3.90838e-12
1.00134e-06
1.41862e-26
1.24993e-21
4.81089e-17
3.91098e-12
1.00168e-06
1.39266e-26
1.24133e-21
4.79448e-17
3.91798e-12
1.00323e-06
1.38224e-26
1.23807e-21
4.78771e-17
3.91872e-12
1.00355e-06
3.36647e-27
9.53094e-22
4.14427e-17
3.80857e-12
1.00081e-06
3.37437e-27
9.57808e-22
4.36112e-17
4.37614e-12
9.986e-07
1.3829e-26
1.24254e-21
5.00092e-17
4.48194e-12
1.00138e-06
1.39336e-26
1.24581e-21
5.00746e-17
4.4808e-12
1.00107e-06
1.41931e-26
1.25436e-21
5.02249e-17
4.4717e-12
9.99533e-07
1.41293e-26
1.25272e-21
5.0178e-17
4.46878e-12
9.99202e-07
1.3928e-26
1.24757e-21
5.00309e-17
4.45918e-12
9.9814e-07
1.38917e-26
1.2466e-21
5.00034e-17
4.45751e-12
9.9795e-07
1.38013e-26
1.24422e-21
4.99347e-17
4.45306e-12
9.97454e-07
1.37875e-26
1.24386e-21
4.9924e-17
4.45237e-12
9.97373e-07
1.37641e-26
1.24323e-21
4.99055e-17
4.45111e-12
9.9723e-07
1.37641e-26
1.24323e-21
4.99055e-17
4.45111e-12
9.9723e-07
1.37875e-26
1.24386e-21
4.9924e-17
4.45237e-12
9.97373e-07
1.38013e-26
1.24422e-21
4.99347e-17
4.45306e-12
9.97454e-07
1.38917e-26
1.2466e-21
5.00034e-17
4.45751e-12
9.9795e-07
1.3928e-26
1.24757e-21
5.00308e-17
4.45918e-12
9.9814e-07
1.41293e-26
1.25272e-21
5.0178e-17
4.46878e-12
9.99202e-07
1.41931e-26
1.25436e-21
5.02249e-17
4.4717e-12
9.99533e-07
1.39336e-26
1.24581e-21
5.00746e-17
4.4808e-12
1.00107e-06
1.3829e-26
1.24254e-21
5.00092e-17
4.48194e-12
1.00138e-06
3.37436e-27
9.57808e-22
4.36112e-17
4.37614e-12
9.986e-07
3.38631e-27
9.64044e-22
4.61331e-17
4.94207e-12
9.96453e-07
1.38394e-26
1.24849e-21
5.24879e-17
5.0435e-12
9.99273e-07
1.39445e-26
1.25176e-21
5.25507e-17
5.04199e-12
9.98964e-07
1.42038e-26
1.26024e-21
5.26849e-17
5.0308e-12
9.97451e-07
1.41399e-26
1.2586e-21
5.26358e-17
5.02756e-12
9.97123e-07
1.39386e-26
1.25342e-21
5.24805e-17
5.01685e-12
9.96071e-07
1.39022e-26
1.25245e-21
5.24517e-17
5.01499e-12
9.95883e-07
1.38119e-26
1.25006e-21
5.23793e-17
5.01003e-12
9.95391e-07
1.37981e-26
1.24969e-21
5.2368e-17
5.00926e-12
9.95311e-07
1.37746e-26
1.24906e-21
5.23485e-17
5.00785e-12
9.95169e-07
1.37746e-26
1.24906e-21
5.23485e-17
5.00785e-12
9.95169e-07
1.37981e-26
1.24969e-21
5.2368e-17
5.00926e-12
9.95311e-07
1.38119e-26
1.25006e-21
5.23793e-17
5.01003e-12
9.95391e-07
1.39022e-26
1.25245e-21
5.24517e-17
5.01499e-12
9.95883e-07
1.39386e-26
1.25342e-21
5.24805e-17
5.01685e-12
9.96071e-07
1.41399e-26
1.2586e-21
5.26358e-17
5.02756e-12
9.97123e-07
1.42038e-26
1.26024e-21
5.26849e-17
5.0308e-12
9.97451e-07
1.39445e-26
1.25176e-21
5.25507e-17
5.04199e-12
9.98964e-07
1.38394e-26
1.24849e-21
5.24879e-17
5.0435e-12
9.99273e-07
3.3863e-27
9.64044e-22
4.61331e-17
4.94207e-12
9.96453e-07
3.40342e-27
9.72019e-22
4.9007e-17
5.50626e-12
9.94365e-07
1.38548e-26
1.25612e-21
5.5312e-17
5.60334e-12
9.97225e-07
1.39602e-26
1.25938e-21
5.53716e-17
5.60145e-12
9.96919e-07
1.42193e-26
1.2678e-21
5.54877e-17
5.5882e-12
9.95425e-07
1.41554e-26
1.26614e-21
5.54359e-17
5.58464e-12
9.951e-07
1.3954e-26
1.26093e-21
5.52714e-17
5.57282e-12
9.94057e-07
1.39176e-26
1.25996e-21
5.52411e-17
5.57078e-12
9.93871e-07
1.38272e-26
1.25755e-21
5.51645e-17
5.56531e-12
9.93384e-07
1.38134e-26
1.25718e-21
5.51526e-17
5.56446e-12
9.93305e-07
1.379e-26
1.25655e-21
5.51318e-17
5.56291e-12
9.93164e-07
1.379e-26
1.25655e-21
5.51318e-17
5.56291e-12
9.93164e-07
1.38134e-26
1.25718e-21
5.51526e-17
5.56446e-12
9.93305e-07
1.38272e-26
1.25755e-21
5.51645e-17
5.56531e-12
9.93384e-07
1.39176e-26
1.25996e-21
5.52411e-17
5.57078e-12
9.93871e-07
1.3954e-26
1.26093e-21
5.52714e-17
5.57282e-12
9.94057e-07
1.41554e-26
1.26614e-21
5.54359e-17
5.58464e-12
9.951e-07
1.42193e-26
1.2678e-21
5.54877e-17
5.5882e-12
9.95425e-07
1.39602e-26
1.25938e-21
5.53716e-17
5.60145e-12
9.96919e-07
1.38548e-26
1.25612e-21
5.5312e-17
5.60334e-12
9.97225e-07
3.40342e-27
9.72019e-22
4.9007e-17
5.50626e-12
9.94365e-07
3.42698e-27
9.81948e-22
5.22313e-17
6.06865e-12
9.92332e-07
1.38762e-26
1.26564e-21
5.84798e-17
6.16136e-12
9.9523e-07
1.39821e-26
1.2689e-21
5.8536e-17
6.1591e-12
9.94927e-07
1.42409e-26
1.27723e-21
5.86316e-17
6.14381e-12
9.93452e-07
1.4177e-26
1.27556e-21
5.8577e-17
6.13993e-12
9.9313e-07
1.39754e-26
1.27031e-21
5.84021e-17
6.12702e-12
9.92096e-07
1.3939e-26
1.26933e-21
5.83702e-17
6.1248e-12
9.91911e-07
1.38485e-26
1.2669e-21
5.82889e-17
6.11883e-12
9.91428e-07
1.38348e-26
1.26653e-21
5.82763e-17
6.1179e-12
9.9135e-07
1.38113e-26
1.26589e-21
5.82541e-17
6.11621e-12
9.9121e-07
1.38113e-26
1.26589e-21
5.82541e-17
6.11621e-12
9.9121e-07
1.38348e-26
1.26653e-21
5.82763e-17
6.1179e-12
9.9135e-07
1.38485e-26
1.2669e-21
5.82889e-17
6.11883e-12
9.91428e-07
1.3939e-26
1.26933e-21
5.83702e-17
6.1248e-12
9.91911e-07
1.39754e-26
1.27031e-21
5.84021e-17
6.12702e-12
9.92096e-07
1.4177e-26
1.27556e-21
5.8577e-17
6.13993e-12
9.9313e-07
1.42409e-26
1.27723e-21
5.86316e-17
6.14381e-12
9.93452e-07
1.39821e-26
1.2689e-21
5.8536e-17
6.1591e-12
9.94927e-07
1.38762e-26
1.26564e-21
5.84798e-17
6.16136e-12
9.9523e-07
3.42697e-27
9.81947e-22
5.22313e-17
6.06865e-12
9.92332e-07
3.45838e-27
9.94043e-22
5.58046e-17
6.62914e-12
9.9035e-07
1.39051e-26
1.27727e-21
6.19898e-17
6.71749e-12
9.93283e-07
1.40114e-26
1.28052e-21
6.20422e-17
6.71485e-12
9.92984e-07
1.42698e-26
1.28873e-21
6.21153e-17
6.69755e-12
9.91526e-07
1.42058e-26
1.28705e-21
6.20575e-17
6.69336e-12
9.91206e-07
1.40042e-26
1.28175e-21
6.18712e-17
6.67936e-12
9.90182e-07
1.39677e-26
1.28076e-21
6.18375e-17
6.67697e-12
9.89999e-07
1.38772e-26
1.27831e-21
6.17509e-17
6.67049e-12
9.89519e-07
1.38634e-26
1.27793e-21
6.17375e-17
6.66949e-12
9.89442e-07
1.38399e-26
1.27729e-21
6.17139e-17
6.66765e-12
9.89304e-07
1.38399e-26
1.27729e-21
6.17139e-17
6.66765e-12
9.89304e-07
1.38634e-26
1.27793e-21
6.17375e-17
6.66949e-12
9.89442e-07
1.38772e-26
1.27831e-21
6.17509e-17
6.67049e-12
9.89519e-07
1.39677e-26
1.28076e-21
6.18375e-17
6.67697e-12
9.89999e-07
1.40042e-26
1.28175e-21
6.18712e-17
6.67936e-12
9.90182e-07
1.42058e-26
1.28705e-21
6.20575e-17
6.69336e-12
9.91206e-07
1.42698e-26
1.28873e-21
6.21153e-17
6.69755e-12
9.91526e-07
1.40114e-26
1.28052e-21
6.20422e-17
6.71485e-12
9.92984e-07
1.39051e-26
1.27727e-21
6.19898e-17
6.71749e-12
9.93283e-07
3.45838e-27
9.94043e-22
5.58046e-17
6.62914e-12
9.9035e-07
3.49918e-27
1.00852e-21
5.97252e-17
7.18763e-12
9.88413e-07
1.39429e-26
1.2912e-21
6.58404e-17
7.27161e-12
9.91379e-07
1.40497e-26
1.29444e-21
6.58886e-17
7.26861e-12
9.91084e-07
1.43076e-26
1.30252e-21
6.59371e-17
7.24933e-12
9.89643e-07
1.42436e-26
1.30082e-21
6.58758e-17
7.24483e-12
9.89326e-07
1.40417e-26
1.29546e-21
6.5677e-17
7.22976e-12
9.8831e-07
1.40052e-26
1.29446e-21
6.56413e-17
7.22719e-12
9.88129e-07
1.39145e-26
1.29199e-21
6.5549e-17
7.22022e-12
9.87653e-07
1.39007e-26
1.2916e-21
6.55348e-17
7.21914e-12
9.87576e-07
1.38772e-26
1.29095e-21
6.55095e-17
7.21716e-12
9.8744e-07
1.38772e-26
1.29095e-21
6.55095e-17
7.21716e-12
9.8744e-07
1.39007e-26
1.2916e-21
6.55348e-17
7.21914e-12
9.87576e-07
1.39145e-26
1.29199e-21
6.5549e-17
7.22022e-12
9.87653e-07
1.40052e-26
1.29446e-21
6.56413e-17
7.22719e-12
9.88129e-07
1.40417e-26
1.29546e-21
6.5677e-17
7.22976e-12
9.8831e-07
1.42436e-26
1.30082e-21
6.58758e-17
7.24483e-12
9.89326e-07
1.43076e-26
1.30252e-21
6.59371e-17
7.24933e-12
9.89643e-07
1.40497e-26
1.29444e-21
6.58886e-17
7.26861e-12
9.91084e-07
1.39429e-26
1.2912e-21
6.58404e-17
7.27161e-12
9.91379e-07
3.49917e-27
1.00852e-21
5.97252e-17
7.18763e-12
9.88413e-07
3.55105e-27
1.02559e-21
6.39914e-17
7.74403e-12
9.86512e-07
1.39913e-26
1.30765e-21
7.00299e-17
7.82365e-12
9.89511e-07
1.40985e-26
1.31087e-21
7.00735e-17
7.82029e-12
9.89219e-07
1.43558e-26
1.3188e-21
7.00953e-17
7.79904e-12
9.87795e-07
1.42917e-26
1.31708e-21
7.00302e-17
7.79424e-12
9.87481e-07
1.40895e-26
1.31165e-21
6.98178e-17
7.7781e-12
9.86473e-07
1.4053e-26
1.31064e-21
6.978e-17
7.77536e-12
9.86293e-07
1.39622e-26
1.30813e-21
6.96815e-17
7.7679e-12
9.85822e-07
1.39484e-26
1.30774e-21
6.96663e-17
7.76676e-12
9.85745e-07
1.39248e-26
1.30708e-21
6.96393e-17
7.76463e-12
9.8561e-07
1.39248e-26
1.30708e-21
6.96393e-17
7.76463e-12
9.8561e-07
1.39484e-26
1.30774e-21
6.96663e-17
7.76676e-12
9.85745e-07
1.39622e-26
1.30813e-21
6.96815e-17
7.7679e-12
9.85822e-07
1.4053e-26
1.31064e-21
6.978e-17
7.77536e-12
9.86293e-07
1.40895e-26
1.31165e-21
6.98178e-17
7.7781e-12
9.86473e-07
1.42917e-26
1.31708e-21
7.00302e-17
7.79424e-12
9.87481e-07
1.43558e-26
1.3188e-21
7.00953e-17
7.79904e-12
9.87795e-07
1.40985e-26
1.31087e-21
7.00735e-17
7.82029e-12
9.89219e-07
1.39913e-26
1.30765e-21
7.00298e-17
7.82365e-12
9.89511e-07
3.55105e-27
1.02559e-21
6.39914e-17
7.74403e-12
9.86512e-07
3.61584e-27
1.04546e-21
6.86014e-17
8.29822e-12
9.84612e-07
1.4052e-26
1.32681e-21
7.45563e-17
8.37348e-12
9.87644e-07
1.41597e-26
1.33002e-21
7.4595e-17
8.36976e-12
9.87355e-07
1.44161e-26
1.33776e-21
7.45881e-17
8.34658e-12
9.85948e-07
1.4352e-26
1.33602e-21
7.45189e-17
8.34148e-12
9.85636e-07
1.41495e-26
1.33051e-21
7.42919e-17
8.32429e-12
9.84637e-07
1.41129e-26
1.32948e-21
7.42518e-17
8.32138e-12
9.84458e-07
1.4022e-26
1.32694e-21
7.41466e-17
8.31344e-12
9.8399e-07
1.40081e-26
1.32654e-21
7.41305e-17
8.31222e-12
9.83915e-07
1.39845e-26
1.32587e-21
7.41015e-17
8.30995e-12
9.8378e-07
1.39845e-26
1.32587e-21
7.41015e-17
8.30995e-12
9.8378e-07
1.40081e-26
1.32654e-21
7.41305e-17
8.31222e-12
9.83915e-07
1.4022e-26
1.32694e-21
7.41466e-17
8.31344e-12
9.8399e-07
1.41129e-26
1.32948e-21
7.42518e-17
8.32138e-12
9.84458e-07
1.41495e-26
1.33051e-21
7.42919e-17
8.32429e-12
9.84637e-07
1.4352e-26
1.33602e-21
7.45189e-17
8.34148e-12
9.85636e-07
1.44161e-26
1.33776e-21
7.45881e-17
8.34658e-12
9.85948e-07
1.41597e-26
1.33002e-21
7.4595e-17
8.36976e-12
9.87355e-07
1.4052e-26
1.32681e-21
7.45563e-17
8.37348e-12
9.87644e-07
3.61584e-27
1.04546e-21
6.86014e-17
8.29822e-12
9.84612e-07
0.000609112
0.000126355
4.36993e-06
2.99723e-08
2.37845e-11
1.28944e-13
1.39482e-13
1.40186e-13
1.40338e-13
1.40366e-13
1.40377e-13
1.4045e-13
1.40818e-13
1.41258e-13
1.44853e-13
1.47894e-13
1.79649e-13
1.967e-13
6.28581e-13
7.34265e-13
0.000663812
0.000139016
4.95624e-06
3.58871e-08
3.32334e-11
1.30842e-13
1.39459e-13
1.40179e-13
1.40335e-13
1.40363e-13
1.40371e-13
1.40431e-13
1.40807e-13
1.41254e-13
1.44912e-13
1.47989e-13
1.80168e-13
1.97333e-13
6.34271e-13
7.4122e-13
0.000664078
0.000139036
4.95375e-06
3.58574e-08
3.31884e-11
1.30836e-13
1.39458e-13
1.40179e-13
1.40335e-13
1.40363e-13
1.40371e-13
1.40432e-13
1.40808e-13
1.41256e-13
1.44915e-13
1.47993e-13
1.80178e-13
1.97344e-13
6.34327e-13
7.41277e-13
0.000664872
0.000138918
4.92596e-06
3.55354e-08
3.27058e-11
1.30797e-13
1.39457e-13
1.40179e-13
1.40336e-13
1.40364e-13
1.40372e-13
1.40438e-13
1.40815e-13
1.41263e-13
1.44927e-13
1.48007e-13
1.80212e-13
1.9738e-13
6.34507e-13
7.41435e-13
0.000664293
0.000138769
4.9176e-06
3.54498e-08
3.25619e-11
1.30763e-13
1.39457e-13
1.40179e-13
1.40336e-13
1.40364e-13
1.40373e-13
1.40438e-13
1.40815e-13
1.41263e-13
1.44927e-13
1.48007e-13
1.80213e-13
1.97381e-13
6.34511e-13
7.41439e-13
0.000662675
0.000138286
4.88859e-06
3.51515e-08
3.20705e-11
1.30652e-13
1.39458e-13
1.40179e-13
1.40336e-13
1.40364e-13
1.40373e-13
1.40438e-13
1.40815e-13
1.41264e-13
1.44928e-13
1.48008e-13
1.80215e-13
1.97383e-13
6.34518e-13
7.41443e-13
0.000662345
0.000138202
4.88405e-06
3.51055e-08
3.19925e-11
1.30633e-13
1.39458e-13
1.40179e-13
1.40336e-13
1.40364e-13
1.40373e-13
1.40438e-13
1.40815e-13
1.41264e-13
1.44928e-13
1.48008e-13
1.80215e-13
1.97383e-13
6.34518e-13
7.41443e-13
0.000661585
0.00013798
4.87106e-06
3.49732e-08
3.17722e-11
1.3058e-13
1.39458e-13
1.40179e-13
1.40336e-13
1.40364e-13
1.40373e-13
1.40438e-13
1.40815e-13
1.41264e-13
1.44928e-13
1.48008e-13
1.80215e-13
1.97383e-13
6.34518e-13
7.41443e-13
0.000661454
0.000137947
4.86925e-06
3.49549e-08
3.17409e-11
1.30572e-13
1.39458e-13
1.40179e-13
1.40336e-13
1.40364e-13
1.40373e-13
1.40438e-13
1.40815e-13
1.41264e-13
1.44928e-13
1.48008e-13
1.80215e-13
1.97383e-13
6.34518e-13
7.41443e-13
0.000661245
0.000137886
4.86566e-06
3.49184e-08
3.168e-11
1.30556e-13
1.39458e-13
1.40179e-13
1.40336e-13
1.40364e-13
1.40373e-13
1.40438e-13
1.40815e-13
1.41264e-13
1.44928e-13
1.48008e-13
1.80215e-13
1.97383e-13
6.34518e-13
7.41443e-13
0.000661245
0.000137886
4.86566e-06
3.49184e-08
3.168e-11
1.30556e-13
1.39458e-13
1.40179e-13
1.40336e-13
1.40364e-13
1.40373e-13
1.40438e-13
1.40815e-13
1.41264e-13
1.44928e-13
1.48008e-13
1.80215e-13
1.97383e-13
6.34518e-13
7.41443e-13
0.000661454
0.000137947
4.86925e-06
3.49549e-08
3.17409e-11
1.30572e-13
1.39458e-13
1.40179e-13
1.40336e-13
1.40364e-13
1.40373e-13
1.40438e-13
1.40815e-13
1.41264e-13
1.44928e-13
1.48008e-13
1.80215e-13
1.97383e-13
6.34518e-13
7.41443e-13
0.000661585
0.00013798
4.87106e-06
3.49732e-08
3.17722e-11
1.3058e-13
1.39458e-13
1.40179e-13
1.40336e-13
1.40364e-13
1.40373e-13
1.40438e-13
1.40815e-13
1.41264e-13
1.44928e-13
1.48008e-13
1.80215e-13
1.97383e-13
6.34518e-13
7.41443e-13
0.000662345
0.000138202
4.88405e-06
3.51055e-08
3.19925e-11
1.30633e-13
1.39458e-13
1.40179e-13
1.40336e-13
1.40364e-13
1.40373e-13
1.40438e-13
1.40815e-13
1.41264e-13
1.44928e-13
1.48008e-13
1.80215e-13
1.97383e-13
6.34518e-13
7.41443e-13
0.000662675
0.000138286
4.88859e-06
3.51515e-08
3.20705e-11
1.30652e-13
1.39458e-13
1.40179e-13
1.40336e-13
1.40364e-13
1.40373e-13
1.40438e-13
1.40815e-13
1.41264e-13
1.44928e-13
1.48008e-13
1.80215e-13
1.97383e-13
6.34518e-13
7.41443e-13
0.000664293
0.000138769
4.9176e-06
3.54498e-08
3.25619e-11
1.30763e-13
1.39457e-13
1.40179e-13
1.40336e-13
1.40364e-13
1.40373e-13
1.40438e-13
1.40815e-13
1.41263e-13
1.44927e-13
1.48007e-13
1.80213e-13
1.97381e-13
6.34511e-13
7.41439e-13
0.000664872
0.000138918
4.92596e-06
3.55354e-08
3.27058e-11
1.30797e-13
1.39457e-13
1.40179e-13
1.40336e-13
1.40364e-13
1.40372e-13
1.40438e-13
1.40815e-13
1.41263e-13
1.44927e-13
1.48007e-13
1.80212e-13
1.9738e-13
6.34507e-13
7.41435e-13
0.000664078
0.000139036
4.95375e-06
3.58574e-08
3.31884e-11
1.30836e-13
1.39458e-13
1.40179e-13
1.40335e-13
1.40363e-13
1.40371e-13
1.40432e-13
1.40808e-13
1.41256e-13
1.44915e-13
1.47993e-13
1.80178e-13
1.97344e-13
6.34327e-13
7.41277e-13
0.000663813
0.000139016
4.95624e-06
3.58871e-08
3.32334e-11
1.30842e-13
1.39459e-13
1.40179e-13
1.40335e-13
1.40363e-13
1.40371e-13
1.40431e-13
1.40807e-13
1.41254e-13
1.44912e-13
1.47989e-13
1.80168e-13
1.97333e-13
6.34271e-13
7.4122e-13
0.000609112
0.000126355
4.36993e-06
2.99723e-08
2.37845e-11
1.28944e-13
1.39482e-13
1.40186e-13
1.40338e-13
1.40366e-13
1.40377e-13
1.4045e-13
1.40818e-13
1.41258e-13
1.44853e-13
1.47894e-13
1.79649e-13
1.967e-13
6.28581e-13
7.34265e-13
0.00999348
0.0028245
0.000143617
1.36415e-06
1.91639e-09
6.08556e-12
5.9904e-12
6.02453e-12
6.03195e-12
6.03331e-12
6.03384e-12
6.03709e-12
6.05324e-12
6.07241e-12
6.22868e-12
6.35978e-12
7.72844e-12
8.45557e-12
2.68415e-11
3.12445e-11
0.0106537
0.00304287
0.000158834
1.56786e-06
2.35022e-09
6.23548e-12
5.98927e-12
6.02422e-12
6.03181e-12
6.03321e-12
6.03361e-12
6.03625e-12
6.05277e-12
6.07228e-12
6.23129e-12
6.36399e-12
7.75105e-12
8.48305e-12
2.70849e-11
3.15409e-11
0.010655
0.0030426
0.000158711
1.56607e-06
2.34647e-09
6.23439e-12
5.98925e-12
6.02422e-12
6.03182e-12
6.03321e-12
6.03362e-12
6.0363e-12
6.05283e-12
6.07235e-12
6.23142e-12
6.36415e-12
7.75149e-12
8.48351e-12
2.70873e-11
3.15433e-11
0.0106599
0.00303839
0.000157707
1.55086e-06
2.31394e-09
6.22494e-12