/*--------------------------------*- C++ -*----------------------------------*\
  =========                 |
  \\      /  F ield         | OpenFOAM: The Open Source CFD Toolbox
   \\    /   O peration     | Website:  https://openfoam.org
    \\  /    A nd           | Version:  8
     \\/     M anipulation  |
\*---------------------------------------------------------------------------*/
FoamFile
{
    version     2.0;
    format      ascii;
    class       volScalarField;
    location    "3.8";
    object      p;
}
// * * * * * * * * * * * * * * * * * * * * * * * * * * * * * * * * * * * * * //

dimensions      [0 2 -2 0 0 0 0];

internalField   nonuniform List<scalar> 
180000
(
0.000899885
0.000839024
0.000877222
0.000747376
0.000816085
0.000885343
0.000824712
0.000862628
0.000734106
0.000801673
0.000884533
0.000823939
0.000861817
0.000733428
0.000800909
0.000880251
0.000819821
0.000857519
0.000729795
0.000796876
0.000879694
0.000819291
0.000856958
0.000729331
0.000796349
0.000877738
0.000817422
0.000854989
0.00072769
0.000794506
0.000877426
0.000817126
0.000854674
0.000727429
0.00079421
0.000876537
0.000816278
0.000853778
0.000726684
0.00079337
0.000876404
0.000816152
0.000853643
0.000726573
0.000793243
0.000876148
0.000815907
0.000853384
0.000726357
0.000793
0.000876148
0.000815907
0.000853384
0.000726357
0.000793
0.000876404
0.000816152
0.000853643
0.000726573
0.000793243
0.000876537
0.000816278
0.000853778
0.000726684
0.00079337
0.000877426
0.000817126
0.000854674
0.000727429
0.00079421
0.000877738
0.000817422
0.000854989
0.00072769
0.000794506
0.000879694
0.000819291
0.000856958
0.000729331
0.000796349
0.000880251
0.000819821
0.000857519
0.000729795
0.000796876
0.000884533
0.000823939
0.000861817
0.000733428
0.000800909
0.000885343
0.000824712
0.000862628
0.000734106
0.000801673
0.000899885
0.000839024
0.000877222
0.000747376
0.000816085
0.00073449
0.000706244
0.000724906
0.000655919
0.000695085
0.000728131
0.000699093
0.000718184
0.000648113
0.000687546
0.000727769
0.0006987
0.000717803
0.000647707
0.000687139
0.000725814
0.000696561
0.000715738
0.000645498
0.00068495
0.00072556
0.000696286
0.000715469
0.000645216
0.000684664
0.000724658
0.000695309
0.000714516
0.000644213
0.000683657
0.000724515
0.000695154
0.000714364
0.000644054
0.000683495
0.000724104
0.000694709
0.000713928
0.000643597
0.000683035
0.000724042
0.000694643
0.000713862
0.000643529
0.000682965
0.000723923
0.000694515
0.000713736
0.000643397
0.000682832
0.000723923
0.000694515
0.000713736
0.000643397
0.000682832
0.000724042
0.000694643
0.000713862
0.000643529
0.000682965
0.000724104
0.000694709
0.000713928
0.000643597
0.000683035
0.000724515
0.000695154
0.000714364
0.000644054
0.000683495
0.000724658
0.000695309
0.000714516
0.000644213
0.000683657
0.00072556
0.000696286
0.000715469
0.000645216
0.000684664
0.000725814
0.000696561
0.000715738
0.000645498
0.00068495
0.000727769
0.0006987
0.000717803
0.000647707
0.000687139
0.000728131
0.000699093
0.000718184
0.000648113
0.000687546
0.00073449
0.000706244
0.000724906
0.000655919
0.000695085
0.000527191
0.000504768
0.000520036
0.000466133
0.000499071
0.000522085
0.000499301
0.000514749
0.000460461
0.000493374
0.000521795
0.000498999
0.000514449
0.000460164
0.000493065
0.000520194
0.000497328
0.000512792
0.000458515
0.000491367
0.000519989
0.000497116
0.000512578
0.000458307
0.000491148
0.000519253
0.000496353
0.000511814
0.000457558
0.000490368
0.000519137
0.000496234
0.000511694
0.000457441
0.000490244
0.000518802
0.000495887
0.000511345
0.000457101
0.000489887
0.000518752
0.000495836
0.000511293
0.00045705
0.000489834
0.000518655
0.000495735
0.000511192
0.000456952
0.000489731
0.000518655
0.000495735
0.000511192
0.000456952
0.000489731
0.000518752
0.000495836
0.000511293
0.00045705
0.000489834
0.000518802
0.000495887
0.000511345
0.000457101
0.000489887
0.000519137
0.000496234
0.000511694
0.000457441
0.000490244
0.000519253
0.000496353
0.000511814
0.000457558
0.000490368
0.000519989
0.000497116
0.000512578
0.000458307
0.000491148
0.000520194
0.000497328
0.000512792
0.000458515
0.000491367
0.000521795
0.000498999
0.000514449
0.000460164
0.000493065
0.000522085
0.000499301
0.000514749
0.000460461
0.000493374
0.000527191
0.000504768
0.000520036
0.000466133
0.000499071
0.00049259
0.000466403
0.000484336
0.000423737
0.00046297
0.000486507
0.000460244
0.000478174
0.000417782
0.000456681
0.00048616
0.000459903
0.000477823
0.000417469
0.000456337
0.000484249
0.000458008
0.000475885
0.000415716
0.000454441
0.000484004
0.000457768
0.000475636
0.000415495
0.000454197
0.000483128
0.000456906
0.000474745
0.000414701
0.000453328
0.000482991
0.000456771
0.000474604
0.000414577
0.00045319
0.000482592
0.000456379
0.000474198
0.000414216
0.000452793
0.000482533
0.000456321
0.000474138
0.000414162
0.000452734
0.000482418
0.000456208
0.00047402
0.000414058
0.000452619
0.000482418
0.000456208
0.00047402
0.000414058
0.000452619
0.000482533
0.000456321
0.000474138
0.000414162
0.000452734
0.000482592
0.000456379
0.000474198
0.000414216
0.000452793
0.000482991
0.000456771
0.000474604
0.000414577
0.00045319
0.000483128
0.000456906
0.000474745
0.000414701
0.000453328
0.000484004
0.000457768
0.000475636
0.000415495
0.000454197
0.000484249
0.000458008
0.000475885
0.000415716
0.000454441
0.00048616
0.000459903
0.000477823
0.000417469
0.000456337
0.000486507
0.000460244
0.000478174
0.000417782
0.000456681
0.00049259
0.000466403
0.000484336
0.000423737
0.00046297
0.000515542
0.000487858
0.000507163
0.00044241
0.000487233
0.000509134
0.000481367
0.00050067
0.000436144
0.000480627
0.000508764
0.000481003
0.000500297
0.000435811
0.000480259
0.00050672
0.000478976
0.000498223
0.000433937
0.000478229
0.000506458
0.000478719
0.000497957
0.000433702
0.000477968
0.00050552
0.000477796
0.000497003
0.000432852
0.000477037
0.000505374
0.000477652
0.000496853
0.00043272
0.000476889
0.000504947
0.000477232
0.000496418
0.000432333
0.000476464
0.000504884
0.00047717
0.000496354
0.000432276
0.000476401
0.00050476
0.000477049
0.000496228
0.000432165
0.000476278
0.00050476
0.000477049
0.000496228
0.000432165
0.000476278
0.000504884
0.00047717
0.000496354
0.000432276
0.000476401
0.000504947
0.000477232
0.000496418
0.000432333
0.000476464
0.000505374
0.000477652
0.000496853
0.00043272
0.000476889
0.00050552
0.000477796
0.000497003
0.000432852
0.000477037
0.000506458
0.000478719
0.000497957
0.000433702
0.000477968
0.00050672
0.000478976
0.000498223
0.000433937
0.000478229
0.000508764
0.000481003
0.000500297
0.000435811
0.000480259
0.000509134
0.000481367
0.00050067
0.000436144
0.000480627
0.000515542
0.000487858
0.000507163
0.00044241
0.000487233
0.000528338
0.000501224
0.000520619
0.000455931
0.000504372
0.000522113
0.000494871
0.000514295
0.000449739
0.000497908
0.000521749
0.000494511
0.000513927
0.000449406
0.000497542
0.000519722
0.000492487
0.000511865
0.000447515
0.000495506
0.000519463
0.000492231
0.000511602
0.000447279
0.000495245
0.000518532
0.000491308
0.000510652
0.000446421
0.000494309
0.000518386
0.000491164
0.000510503
0.000446287
0.000494162
0.000517962
0.000490745
0.00051007
0.000445897
0.000493734
0.0005179
0.000490683
0.000510006
0.00044584
0.000493671
0.000517777
0.000490562
0.000509881
0.000445727
0.000493547
0.000517777
0.000490562
0.000509881
0.000445727
0.000493547
0.0005179
0.000490683
0.000510006
0.00044584
0.000493671
0.000517962
0.000490745
0.00051007
0.000445897
0.000493734
0.000518386
0.000491164
0.000510503
0.000446287
0.000494162
0.000518532
0.000491308
0.000510652
0.000446421
0.000494309
0.000519463
0.000492231
0.000511602
0.000447279
0.000495245
0.000519722
0.000492487
0.000511865
0.000447515
0.000495506
0.000521749
0.000494511
0.000513927
0.000449406
0.000497542
0.000522113
0.000494871
0.000514295
0.000449739
0.000497908
0.000528338
0.000501224
0.000520619
0.000455931
0.000504372
0.000528273
0.000501908
0.000521257
0.000457438
0.000509163
0.000522261
0.000495761
0.000515148
0.000451427
0.000502916
0.000521906
0.000495408
0.000514788
0.0004511
0.000502557
0.000519908
0.00049341
0.000512756
0.000449227
0.000500538
0.000519654
0.000493159
0.000512497
0.000448993
0.00050028
0.000518735
0.000492246
0.000511559
0.000448141
0.000499352
0.000518592
0.000492105
0.000511413
0.000448009
0.000499206
0.000518174
0.00049169
0.000510985
0.000447622
0.000498782
0.000518112
0.000491629
0.000510922
0.000447565
0.000498719
0.000517991
0.000491509
0.000510798
0.000447453
0.000498596
0.000517991
0.000491509
0.000510798
0.000447453
0.000498596
0.000518112
0.000491629
0.000510922
0.000447565
0.000498719
0.000518174
0.00049169
0.000510985
0.000447622
0.000498782
0.000518592
0.000492105
0.000511413
0.000448009
0.000499206
0.000518735
0.000492246
0.000511559
0.000448141
0.000499352
0.000519654
0.000493159
0.000512497
0.000448993
0.00050028
0.000519908
0.00049341
0.000512756
0.000449227
0.000500538
0.000521906
0.000495408
0.000514788
0.0004511
0.000502557
0.000522261
0.000495761
0.000515148
0.000451427
0.000502916
0.000528273
0.000501908
0.000521257
0.000457438
0.000509163
0.000525643
0.000499694
0.000519189
0.000455788
0.000510846
0.000519758
0.000493687
0.000513215
0.000449921
0.000504749
0.000519408
0.000493339
0.000512859
0.000449598
0.000504393
0.000517416
0.000491349
0.000510835
0.000447732
0.000502377
0.000517164
0.0004911
0.000510578
0.0004475
0.000502121
0.000516247
0.000490191
0.000509643
0.000446651
0.000501193
0.000516105
0.00049005
0.000509498
0.00044652
0.000501047
0.000515687
0.000489636
0.000509071
0.000446134
0.000500623
0.000515626
0.000489576
0.000509008
0.000446078
0.00050056
0.000515506
0.000489457
0.000508885
0.000445966
0.000500438
0.000515506
0.000489457
0.000508885
0.000445966
0.000500438
0.000515626
0.000489576
0.000509008
0.000446078
0.00050056
0.000515687
0.000489636
0.000509071
0.000446134
0.000500623
0.000516105
0.00049005
0.000509498
0.00044652
0.000501047
0.000516247
0.000490191
0.000509643
0.000446651
0.000501193
0.000517164
0.0004911
0.000510578
0.0004475
0.000502121
0.000517416
0.000491349
0.000510835
0.000447732
0.000502377
0.000519408
0.000493339
0.000512859
0.000449598
0.000504393
0.000519758
0.000493687
0.000513215
0.000449921
0.000504749
0.000525643
0.000499694
0.000519189
0.000455788
0.000510846
0.000524397
0.000498718
0.000518438
0.000455228
0.000513264
0.000518605
0.000492814
0.000512564
0.000449469
0.000507276
0.000518256
0.00049247
0.000512211
0.000449149
0.000506922
0.000516262
0.00049048
0.000510186
0.000447283
0.0005049
0.000516011
0.000490231
0.000509929
0.000447051
0.000504644
0.000515091
0.00048932
0.000508993
0.000446201
0.000503712
0.000514949
0.00048918
0.000508847
0.00044607
0.000503566
0.00051453
0.000488766
0.00050842
0.000445683
0.00050314
0.00051447
0.000488706
0.000508357
0.000445627
0.000503078
0.000514349
0.000488586
0.000508234
0.000445515
0.000502954
0.000514349
0.000488586
0.000508234
0.000445515
0.000502954
0.00051447
0.000488706
0.000508357
0.000445627
0.000503078
0.00051453
0.000488766
0.00050842
0.000445683
0.00050314
0.000514949
0.00048918
0.000508847
0.00044607
0.000503566
0.000515091
0.00048932
0.000508993
0.000446201
0.000503712
0.000516011
0.000490231
0.000509929
0.000447051
0.000504644
0.000516262
0.00049048
0.000510186
0.000447283
0.0005049
0.000518256
0.00049247
0.000512211
0.000449149
0.000506922
0.000518605
0.000492814
0.000512564
0.000449469
0.000507276
0.000524397
0.000498718
0.000518438
0.000455228
0.000513264
0.000524088
0.000498683
0.000518617
0.000455662
0.000515972
0.000518392
0.000492882
0.000512844
0.000450004
0.000510081
0.000518046
0.00049254
0.000512493
0.000449686
0.000509729
0.000516051
0.00049055
0.000510467
0.000447819
0.000507701
0.0005158
0.000490303
0.000510212
0.000447588
0.000507445
0.000514879
0.000489391
0.000509273
0.000446736
0.000506509
0.000514737
0.000489251
0.000509128
0.000446605
0.000506363
0.000514317
0.000488836
0.0005087
0.000446217
0.000505935
0.000514256
0.000488776
0.000508638
0.000446161
0.000505872
0.000514135
0.000488656
0.000508514
0.000446049
0.000505749
0.000514135
0.000488656
0.000508514
0.000446049
0.000505749
0.000514256
0.000488776
0.000508638
0.000446161
0.000505872
0.000514317
0.000488836
0.0005087
0.000446217
0.000505935
0.000514737
0.000489251
0.000509128
0.000446605
0.000506363
0.000514879
0.000489391
0.000509273
0.000446736
0.000506509
0.0005158
0.000490303
0.000510212
0.000447588
0.000507445
0.000516051
0.00049055
0.000510467
0.000447819
0.000507701
0.000518046
0.00049254
0.000512493
0.000449686
0.000509729
0.000518392
0.000492882
0.000512844
0.000450004
0.000510081
0.000524088
0.000498683
0.000518617
0.000455662
0.000515972
0.000523876
0.000498763
0.000518884
0.000456297
0.000517828
0.000518281
0.000493069
0.000513217
0.000450741
0.000512021
0.000517937
0.000492729
0.00051287
0.000450426
0.00051167
0.000515944
0.000490742
0.000510846
0.000448558
0.000509638
0.000515694
0.000490495
0.000510591
0.000448328
0.000509381
0.000514772
0.000489583
0.000509653
0.000447474
0.000508441
0.00051463
0.000489443
0.000509508
0.000447344
0.000508295
0.00051421
0.000489028
0.000509079
0.000446955
0.000507866
0.00051415
0.000488968
0.000509017
0.000446899
0.000507803
0.000514028
0.000488848
0.000508893
0.000446787
0.000507679
0.000514028
0.000488848
0.000508893
0.000446787
0.000507679
0.00051415
0.000488968
0.000509017
0.000446899
0.000507803
0.00051421
0.000489028
0.000509079
0.000446955
0.000507866
0.00051463
0.000489443
0.000509508
0.000447344
0.000508295
0.000514772
0.000489583
0.000509653
0.000447474
0.000508441
0.000515694
0.000490495
0.000510591
0.000448328
0.000509381
0.000515944
0.000490742
0.000510846
0.000448558
0.000509638
0.000517937
0.000492729
0.00051287
0.000450426
0.00051167
0.000518281
0.000493069
0.000513217
0.000450741
0.000512021
0.000523876
0.000498763
0.000518884
0.000456297
0.000517828
0.00052355
0.000498725
0.000519022
0.000456829
0.000516623
0.000518055
0.000493137
0.00051346
0.000451375
0.000510915
0.000517714
0.0004928
0.000513115
0.000451062
0.000510568
0.000515723
0.000490816
0.000511094
0.000449195
0.000508539
0.000515474
0.00049057
0.000510841
0.000448966
0.000508283
0.000514552
0.000489658
0.000509902
0.000448111
0.000507343
0.000514411
0.000489519
0.000509758
0.000447981
0.000507198
0.00051399
0.000489103
0.000509329
0.000447592
0.000506768
0.00051393
0.000489044
0.000509267
0.000447536
0.000506706
0.000513808
0.000488923
0.000509143
0.000447423
0.000506581
0.000513808
0.000488923
0.000509143
0.000447423
0.000506581
0.00051393
0.000489044
0.000509267
0.000447536
0.000506706
0.00051399
0.000489103
0.000509329
0.000447592
0.000506768
0.000514411
0.000489519
0.000509758
0.000447981
0.000507198
0.000514552
0.000489658
0.000509902
0.000448111
0.000507343
0.000515474
0.00049057
0.000510841
0.000448966
0.000508283
0.000515723
0.000490816
0.000511094
0.000449195
0.000508539
0.000517714
0.0004928
0.000513115
0.000451062
0.000510568
0.000518055
0.000493137
0.00051346
0.000451375
0.000510915
0.00052355
0.000498725
0.000519022
0.000456829
0.000516623
0.000523185
0.000498636
0.000519101
0.000457231
0.000514547
0.000517787
0.00049315
0.000513641
0.000451878
0.000508942
0.000517449
0.000492816
0.000513299
0.000451567
0.000508598
0.00051546
0.000490835
0.000511282
0.000449702
0.000506575
0.000515212
0.00049059
0.000511029
0.000449473
0.000506321
0.00051429
0.000489678
0.00051009
0.000448618
0.000505382
0.000514149
0.000489539
0.000509946
0.000448488
0.000505238
0.000513728
0.000489124
0.000509517
0.000448098
0.000504808
0.000513668
0.000489064
0.000509456
0.000448042
0.000504746
0.000513546
0.000488944
0.000509331
0.000447929
0.000504622
0.000513546
0.000488944
0.000509331
0.000447929
0.000504622
0.000513668
0.000489064
0.000509456
0.000448042
0.000504746
0.000513728
0.000489124
0.000509517
0.000448098
0.000504808
0.000514149
0.000489539
0.000509946
0.000448488
0.000505238
0.00051429
0.000489678
0.00051009
0.000448618
0.000505382
0.000515212
0.00049059
0.000511029
0.000449473
0.000506321
0.00051546
0.000490835
0.000511282
0.000449702
0.000506575
0.000517449
0.000492816
0.000513299
0.000451567
0.000508598
0.000517787
0.00049315
0.000513641
0.000451878
0.000508942
0.000523185
0.000498636
0.000519101
0.000457231
0.000514547
0.000522844
0.000498557
0.000519186
0.000457552
0.00051273
0.000517539
0.000493171
0.000513825
0.000452296
0.000507225
0.000517204
0.00049284
0.000513486
0.000451988
0.000506885
0.000515218
0.000490863
0.000511472
0.000450124
0.000504868
0.000514971
0.000490619
0.00051122
0.000449897
0.000504616
0.000514048
0.000489706
0.000510281
0.00044904
0.000503678
0.000513908
0.000489568
0.000510138
0.000448911
0.000503534
0.000513487
0.000489153
0.000509709
0.000448521
0.000503104
0.000513427
0.000489093
0.000509647
0.000448465
0.000503042
0.000513305
0.000488973
0.000509523
0.000448352
0.000502918
0.000513305
0.000488973
0.000509523
0.000448352
0.000502918
0.000513427
0.000489093
0.000509647
0.000448465
0.000503042
0.000513487
0.000489153
0.000509709
0.000448521
0.000503104
0.000513908
0.000489568
0.000510138
0.000448911
0.000503534
0.000514048
0.000489706
0.000510281
0.00044904
0.000503678
0.000514971
0.000490619
0.00051122
0.000449897
0.000504616
0.000515218
0.000490863
0.000511472
0.000450124
0.000504868
0.000517204
0.00049284
0.000513486
0.000451988
0.000506885
0.000517539
0.000493171
0.000513825
0.000452296
0.000507225
0.000522844
0.000498557
0.000519186
0.000457552
0.00051273
0.000522533
0.0004985
0.000519288
0.000457812
0.000511176
0.000517321
0.000493212
0.000514023
0.000452652
0.000505768
0.000516988
0.000492884
0.000513687
0.000452347
0.000505431
0.000515006
0.00049091
0.000511677
0.000450486
0.00050342
0.000514759
0.000490667
0.000511426
0.000450259
0.000503168
0.000513836
0.000489754
0.000510487
0.000449402
0.000502231
0.000513696
0.000489617
0.000510344
0.000449273
0.000502088
0.000513275
0.000489201
0.000509915
0.000448882
0.000501659
0.000513215
0.000489142
0.000509853
0.000448827
0.000501597
0.000513093
0.000489022
0.000509729
0.000448714
0.000501473
0.000513093
0.000489022
0.000509729
0.000448714
0.000501473
0.000513215
0.000489142
0.000509853
0.000448827
0.000501597
0.000513275
0.000489201
0.000509915
0.000448882
0.000501659
0.000513696
0.000489617
0.000510344
0.000449273
0.000502088
0.000513836
0.000489754
0.000510487
0.000449402
0.000502231
0.000514759
0.000490667
0.000511426
0.000450259
0.000503168
0.000515006
0.00049091
0.000511677
0.000450486
0.00050342
0.000516988
0.000492884
0.000513687
0.000452347
0.000505431
0.000517321
0.000493212
0.000514023
0.000452652
0.000505768
0.000522533
0.0004985
0.000519288
0.000457812
0.000511176
0.000522244
0.000498457
0.000519399
0.000458012
0.000509686
0.000517123
0.000493264
0.000514229
0.000452948
0.000504371
0.000516793
0.000492939
0.000513896
0.000452644
0.000504037
0.000514814
0.000490969
0.000511889
0.000450787
0.000502032
0.000514568
0.000490727
0.00051164
0.000450561
0.000501782
0.000513645
0.000489815
0.000510701
0.000449703
0.000500846
0.000513506
0.000489678
0.000510558
0.000449575
0.000500703
0.000513084
0.000489261
0.000510129
0.000449184
0.000500274
0.000513024
0.000489203
0.000510067
0.000449128
0.000500213
0.000512902
0.000489082
0.000509943
0.000449015
0.000500088
0.000512902
0.000489082
0.000509943
0.000449015
0.000500088
0.000513024
0.000489203
0.000510067
0.000449128
0.000500213
0.000513084
0.000489261
0.000510129
0.000449184
0.000500274
0.000513506
0.000489678
0.000510558
0.000449575
0.000500703
0.000513645
0.000489815
0.000510701
0.000449703
0.000500846
0.000514568
0.000490727
0.00051164
0.000450561
0.000501782
0.000514814
0.000490969
0.000511889
0.000450787
0.000502032
0.000516793
0.000492939
0.000513896
0.000452644
0.000504037
0.000517123
0.000493264
0.000514229
0.000452948
0.000504371
0.000522244
0.000498457
0.000519399
0.000458012
0.000509686
0.000521974
0.000498424
0.000519517
0.000458149
0.000508189
0.000516941
0.000493324
0.00051444
0.000453179
0.000502966
0.000516613
0.000493001
0.000514109
0.000452878
0.000502634
0.000514637
0.000491035
0.000512107
0.000451024
0.000500637
0.000514393
0.000490795
0.000511858
0.000450799
0.000500388
0.00051347
0.000489882
0.000510919
0.000449942
0.000499452
0.000513331
0.000489746
0.000510777
0.000449813
0.00049931
0.000512909
0.000489329
0.000510347
0.000449422
0.000498881
0.000512849
0.000489271
0.000510286
0.000449367
0.00049882
0.000512727
0.000489151
0.000510162
0.000449254
0.000498696
0.000512727
0.000489151
0.000510162
0.000449254
0.000498696
0.000512849
0.000489271
0.000510286
0.000449367
0.00049882
0.000512909
0.000489329
0.000510347
0.000449422
0.000498881
0.000513331
0.000489746
0.000510777
0.000449813
0.00049931
0.00051347
0.000489882
0.000510919
0.000449942
0.000499452
0.000514393
0.000490795
0.000511858
0.000450799
0.000500388
0.000514637
0.000491035
0.000512107
0.000451024
0.000500637
0.000516613
0.000493001
0.000514109
0.000452878
0.000502634
0.000516941
0.000493324
0.00051444
0.000453179
0.000502966
0.000521974
0.000498424
0.000519517
0.000458149
0.000508189
0.00052172
0.000498399
0.000519642
0.000458225
0.000506697
0.000516774
0.00049339
0.000514656
0.000453346
0.000501563
0.000516448
0.00049307
0.000514328
0.000453048
0.000501235
0.000514477
0.000491109
0.00051233
0.000451198
0.000499244
0.000514234
0.00049087
0.000512082
0.000450974
0.000498997
0.00051331
0.000489957
0.000511143
0.000450117
0.000498062
0.000513172
0.000489821
0.000511002
0.000449989
0.00049792
0.00051275
0.000489405
0.000510572
0.000449598
0.000497492
0.00051269
0.000489346
0.000510511
0.000449543
0.000497431
0.000512568
0.000489226
0.000510387
0.000449429
0.000497307
0.000512568
0.000489226
0.000510387
0.000449429
0.000497307
0.00051269
0.000489346
0.000510511
0.000449543
0.000497431
0.00051275
0.000489405
0.000510572
0.000449598
0.000497492
0.000513172
0.000489821
0.000511002
0.000449989
0.00049792
0.00051331
0.000489957
0.000511143
0.000450117
0.000498062
0.000514234
0.00049087
0.000512082
0.000450974
0.000498997
0.000514477
0.000491109
0.00051233
0.000451198
0.000499244
0.000516448
0.00049307
0.000514328
0.000453048
0.000501235
0.000516774
0.00049339
0.000514656
0.000453346
0.000501563
0.00052172
0.000498399
0.000519642
0.000458225
0.000506697
0.000521484
0.000498385
0.000519777
0.000458239
0.000505224
0.000516622
0.000493465
0.000514879
0.000453451
0.000500177
0.0005163
0.000493147
0.000514554
0.000453154
0.000499852
0.000514332
0.000491191
0.000512561
0.00045131
0.000497868
0.00051409
0.000490952
0.000512314
0.000451087
0.000497622
0.000513166
0.00049004
0.000511375
0.00045023
0.000496688
0.000513029
0.000489905
0.000511235
0.000450103
0.000496547
0.000512606
0.000489488
0.000510804
0.000449711
0.000496119
0.000512547
0.00048943
0.000510744
0.000449656
0.000496058
0.000512425
0.00048931
0.000510619
0.000449543
0.000495934
0.000512425
0.00048931
0.000510619
0.000449543
0.000495934
0.000512547
0.00048943
0.000510744
0.000449656
0.000496058
0.000512606
0.000489488
0.000510804
0.000449711
0.000496119
0.000513029
0.000489905
0.000511235
0.000450103
0.000496547
0.000513166
0.00049004
0.000511375
0.00045023
0.000496688
0.00051409
0.000490952
0.000512314
0.000451087
0.000497622
0.000514332
0.000491191
0.000512561
0.00045131
0.000497868
0.0005163
0.000493147
0.000514554
0.000453154
0.000499852
0.000516622
0.000493465
0.000514879
0.000453451
0.000500177
0.000521484
0.000498385
0.000519777
0.000458239
0.000505224
0.000521266
0.000498381
0.000519922
0.000458192
0.000503704
0.000516487
0.000493548
0.000515112
0.000453493
0.000498742
0.000516166
0.000493232
0.000514789
0.000453199
0.00049842
0.000514204
0.000491281
0.000512801
0.00045136
0.000496444
0.000513962
0.000491044
0.000512555
0.000451138
0.000496199
0.000513039
0.000490132
0.000511617
0.000450282
0.000495267
0.000512901
0.000489997
0.000511476
0.000450155
0.000495127
0.000512479
0.00048958
0.000511046
0.000449764
0.000494699
0.00051242
0.000489522
0.000510986
0.000449709
0.000494638
0.000512298
0.000489402
0.000510861
0.000449596
0.000494514
0.000512298
0.000489402
0.000510861
0.000449596
0.000494514
0.00051242
0.000489522
0.000510986
0.000449709
0.000494638
0.000512479
0.00048958
0.000511046
0.000449764
0.000494699
0.000512901
0.000489997
0.000511476
0.000450155
0.000495127
0.000513039
0.000490132
0.000511617
0.000450282
0.000495267
0.000513962
0.000491044
0.000512555
0.000451138
0.000496199
0.000514204
0.000491281
0.000512801
0.00045136
0.000496444
0.000516166
0.000493232
0.000514789
0.000453199
0.00049842
0.000516487
0.000493548
0.000515112
0.000453493
0.000498742
0.000521266
0.000498381
0.000519922
0.000458192
0.000503704
-1.62385e-05
1.57629e-05
2.81374e-06
6.96826e-07
2.51056e-07
1.80751e-07
1.65311e-07
1.62499e-07
1.61808e-07
1.61663e-07
1.61615e-07
1.61593e-07
1.61495e-07
1.61386e-07
1.60519e-07
1.59851e-07
1.53415e-07
1.50644e-07
1.11916e-07
1.07812e-07
-1.63066e-05
1.57231e-05
2.82815e-06
7.01824e-07
2.52288e-07
1.81054e-07
1.65364e-07
1.62498e-07
1.61791e-07
1.61642e-07
1.61593e-07
1.61571e-07
1.61471e-07
1.61359e-07
1.60478e-07
1.59803e-07
1.53295e-07
1.50518e-07
1.11616e-07
1.076e-07
-1.63003e-05
1.5713e-05
2.82502e-06
7.01399e-07
2.52204e-07
1.81044e-07
1.65362e-07
1.62498e-07
1.61791e-07
1.61642e-07
1.61593e-07
1.61571e-07
1.61471e-07
1.61359e-07
1.60477e-07
1.59802e-07
1.53293e-07
1.50516e-07
1.11613e-07
1.07598e-07
-1.62707e-05
1.56608e-05
2.80887e-06
6.99241e-07
2.51786e-07
1.8099e-07
1.6535e-07
1.62496e-07
1.6179e-07
1.61641e-07
1.61592e-07
1.61569e-07
1.61469e-07
1.61357e-07
1.60475e-07
1.59799e-07
1.53286e-07
1.50509e-07
1.11601e-07
1.07592e-07
-1.62655e-05
1.5653e-05
2.80613e-06
6.98813e-07
2.51689e-07
1.80973e-07
1.65346e-07
1.62495e-07
1.61789e-07
1.61641e-07
1.61592e-07
1.61569e-07
1.61469e-07
1.61357e-07
1.60475e-07
1.59799e-07
1.53286e-07
1.50509e-07
1.11601e-07
1.07591e-07
-1.62489e-05
1.56278e-05
2.7975e-06
6.97521e-07
2.51406e-07
1.80928e-07
1.65335e-07
1.62493e-07
1.61789e-07
1.61641e-07
1.61592e-07
1.61569e-07
1.61469e-07
1.61357e-07
1.60474e-07
1.59798e-07
1.53286e-07
1.50509e-07
1.11601e-07
1.07591e-07
-1.62459e-05
1.56234e-05
2.79596e-06
6.97277e-07
2.51349e-07
1.80918e-07
1.65333e-07
1.62492e-07
1.61789e-07
1.61641e-07
1.61592e-07
1.61569e-07
1.61469e-07
1.61357e-07
1.60474e-07
1.59798e-07
1.53286e-07
1.50509e-07
1.11601e-07
1.07591e-07
-1.62382e-05
1.5612e-05
2.79203e-06
6.96683e-07
2.51217e-07
1.80896e-07
1.65328e-07
1.62491e-07
1.61788e-07
1.61641e-07
1.61592e-07
1.61569e-07
1.61469e-07
1.61357e-07
1.60474e-07
1.59798e-07
1.53286e-07
1.50509e-07
1.11601e-07
1.07591e-07
-1.6237e-05
1.56101e-05
2.79138e-06
6.96579e-07
2.51193e-07
1.80892e-07
1.65327e-07
1.62491e-07
1.61788e-07
1.61641e-07
1.61592e-07
1.61569e-07
1.61469e-07
1.61357e-07
1.60474e-07
1.59798e-07
1.53286e-07
1.50509e-07
1.11601e-07
1.07591e-07
-1.62348e-05
1.56068e-05
2.79024e-06
6.96408e-07
2.51154e-07
1.80885e-07
1.65325e-07
1.62491e-07
1.61788e-07
1.61641e-07
1.61592e-07
1.61569e-07
1.61469e-07
1.61357e-07
1.60474e-07
1.59798e-07
1.53286e-07
1.50509e-07
1.11601e-07
1.07591e-07
-1.62348e-05
1.56068e-05
2.79024e-06
6.96408e-07
2.51154e-07
1.80885e-07
1.65325e-07
1.62491e-07
1.61788e-07
1.61641e-07
1.61592e-07
1.61569e-07
1.61469e-07
1.61357e-07
1.60474e-07
1.59798e-07
1.53286e-07
1.50509e-07
1.11601e-07
1.07591e-07
-1.6237e-05
1.56101e-05
2.79138e-06
6.96579e-07
2.51193e-07
1.80892e-07
1.65327e-07
1.62491e-07
1.61788e-07
1.61641e-07
1.61592e-07
1.61569e-07
1.61469e-07
1.61357e-07
1.60474e-07
1.59798e-07
1.53286e-07
1.50509e-07
1.11601e-07
1.07591e-07
-1.62382e-05
1.5612e-05
2.79203e-06
6.96683e-07
2.51217e-07
1.80896e-07
1.65328e-07
1.62491e-07
1.61788e-07
1.61641e-07
1.61592e-07
1.61569e-07
1.61469e-07
1.61357e-07
1.60474e-07
1.59798e-07
1.53286e-07
1.50509e-07
1.11601e-07
1.07591e-07
-1.62459e-05
1.56234e-05
2.79596e-06
6.97277e-07
2.51349e-07
1.80918e-07
1.65333e-07
1.62492e-07
1.61789e-07
1.61641e-07
1.61592e-07
1.61569e-07
1.61469e-07
1.61357e-07
1.60474e-07
1.59798e-07
1.53286e-07
1.50509e-07
1.11601e-07
1.07591e-07
-1.62489e-05
1.56278e-05
2.7975e-06
6.97521e-07
2.51406e-07
1.80928e-07
1.65335e-07
1.62493e-07
1.61789e-07
1.61641e-07
1.61592e-07
1.61569e-07
1.61469e-07
1.61357e-07
1.60474e-07
1.59798e-07
1.53286e-07
1.50509e-07
1.11601e-07
1.07591e-07
-1.62655e-05
1.5653e-05
2.80613e-06
6.98813e-07
2.51689e-07
1.80973e-07
1.65346e-07
1.62495e-07
1.61789e-07
1.61641e-07
1.61592e-07
1.61569e-07
1.61469e-07
1.61357e-07
1.60475e-07
1.59799e-07
1.53286e-07
1.50509e-07
1.11601e-07
1.07591e-07
-1.62707e-05
1.56608e-05
2.80887e-06
6.99241e-07
2.51786e-07
1.8099e-07
1.6535e-07
1.62496e-07
1.6179e-07
1.61641e-07
1.61592e-07
1.61569e-07
1.61469e-07
1.61357e-07
1.60475e-07
1.59799e-07
1.53286e-07
1.50509e-07
1.11601e-07
1.07592e-07
-1.63003e-05
1.5713e-05
2.82502e-06
7.01399e-07
2.52204e-07
1.81044e-07
1.65362e-07
1.62498e-07
1.61791e-07
1.61642e-07
1.61593e-07
1.61571e-07
1.61471e-07
1.61359e-07
1.60477e-07
1.59802e-07
1.53293e-07
1.50516e-07
1.11613e-07
1.07598e-07
-1.63066e-05
1.57231e-05
2.82815e-06
7.01824e-07
2.52288e-07
1.81054e-07
1.65364e-07
1.62498e-07
1.61791e-07
1.61642e-07
1.61593e-07
1.61571e-07
1.61471e-07
1.61359e-07
1.60478e-07
1.59803e-07
1.53295e-07
1.50518e-07
1.11616e-07
1.076e-07
-1.62385e-05
1.57629e-05
2.81374e-06
6.96826e-07
2.51056e-07
1.80751e-07
1.65311e-07
1.62499e-07
1.61808e-07
1.61663e-07
1.61615e-07
1.61593e-07
1.61495e-07
1.61386e-07
1.60519e-07
1.59851e-07
1.53415e-07
1.50644e-07
1.11916e-07
1.07812e-07
-1.58536e-05
1.59331e-05
2.8391e-06
7.02245e-07
2.52005e-07
1.80972e-07
1.65336e-07
1.62594e-07
1.61899e-07
1.61751e-07
1.61703e-07
1.61681e-07
1.61582e-07
1.6147e-07
1.60564e-07
1.59833e-07
1.53333e-07
1.50537e-07
1.11321e-07
1.07188e-07
-1.59168e-05
1.58932e-05
2.85368e-06
7.07299e-07
2.53251e-07
1.81278e-07
1.65391e-07
1.62592e-07
1.61883e-07
1.61731e-07
1.61682e-07
1.61659e-07
1.61557e-07
1.61444e-07
1.60522e-07
1.59784e-07
1.53212e-07
1.50409e-07
1.11017e-07
1.06972e-07
-1.59103e-05
1.5883e-05
2.85052e-06
7.0687e-07
2.53166e-07
1.81267e-07
1.65389e-07
1.62591e-07
1.61882e-07
1.61731e-07
1.61681e-07
1.61659e-07
1.61557e-07
1.61444e-07
1.60521e-07
1.59783e-07
1.5321e-07
1.50407e-07
1.11014e-07
1.0697e-07