/*--------------------------------*- C++ -*----------------------------------*\
  =========                 |
  \\      /  F ield         | OpenFOAM: The Open Source CFD Toolbox
   \\    /   O peration     | Website:  https://openfoam.org
    \\  /    A nd           | Version:  8
     \\/     M anipulation  |
\*---------------------------------------------------------------------------*/
FoamFile
{
    version     2.0;
    format      ascii;
    class       volScalarField;
    location    "3";
    object      H2;
}
// * * * * * * * * * * * * * * * * * * * * * * * * * * * * * * * * * * * * * //

dimensions      [0 1 -1 0 0 0 0];

internalField   nonuniform List<scalar> 
180000
(
-6.64072e-27
-1.22024e-22
-1.21526e-18
2.16787e-14
1.51536e-09
-6.719e-27
-1.16788e-22
-8.89602e-19
3.32708e-14
1.8223e-09
-6.72721e-27
-1.16845e-22
-8.87045e-19
3.34013e-14
1.82576e-09
-6.7543e-27
-1.1705e-22
-8.79369e-19
3.38104e-14
1.83668e-09
-6.75683e-27
-1.17118e-22
-8.81218e-19
3.37571e-14
1.83515e-09
-6.76424e-27
-1.17326e-22
-8.87174e-19
3.35843e-14
1.83027e-09
-6.7652e-27
-1.17358e-22
-8.88217e-19
3.3552e-14
1.82934e-09
-6.76767e-27
-1.1744e-22
-8.90846e-19
3.34712e-14
1.82704e-09
-6.768e-27
-1.17452e-22
-8.91239e-19
3.34589e-14
1.82668e-09
-6.7686e-27
-1.17472e-22
-8.91912e-19
3.34379e-14
1.82608e-09
-6.7686e-27
-1.17472e-22
-8.91912e-19
3.34379e-14
1.82608e-09
-6.768e-27
-1.17452e-22
-8.91239e-19
3.34589e-14
1.82668e-09
-6.76767e-27
-1.1744e-22
-8.90846e-19
3.34712e-14
1.82704e-09
-6.7652e-27
-1.17358e-22
-8.88217e-19
3.3552e-14
1.82934e-09
-6.76424e-27
-1.17326e-22
-8.87174e-19
3.35843e-14
1.83027e-09
-6.75683e-27
-1.17118e-22
-8.81218e-19
3.37571e-14
1.83515e-09
-6.7543e-27
-1.1705e-22
-8.79369e-19
3.38104e-14
1.83668e-09
-6.72721e-27
-1.16845e-22
-8.87045e-19
3.34014e-14
1.82576e-09
-6.719e-27
-1.16788e-22
-8.89602e-19
3.32708e-14
1.8223e-09
-6.64072e-27
-1.22024e-22
-1.21526e-18
2.16787e-14
1.51536e-09
-6.64069e-27
-1.22022e-22
-1.21495e-18
2.20968e-14
2.24507e-09
-6.71897e-27
-1.16785e-22
-8.89305e-19
3.37201e-14
2.61372e-09
-6.72718e-27
-1.16842e-22
-8.86747e-19
3.38506e-14
2.61731e-09
-6.75428e-27
-1.17048e-22
-8.79074e-19
3.42584e-14
2.62775e-09
-6.75681e-27
-1.17115e-22
-8.80924e-19
3.42046e-14
2.62549e-09
-6.76422e-27
-1.17324e-22
-8.86881e-19
3.403e-14
2.61812e-09
-6.76518e-27
-1.17356e-22
-8.87924e-19
3.39974e-14
2.61678e-09
-6.76764e-27
-1.17437e-22
-8.90553e-19
3.39157e-14
2.61334e-09
-6.76798e-27
-1.17449e-22
-8.90946e-19
3.39034e-14
2.61283e-09
-6.76858e-27
-1.1747e-22
-8.9162e-19
3.38822e-14
2.61191e-09
-6.76858e-27
-1.1747e-22
-8.9162e-19
3.38822e-14
2.61191e-09
-6.76798e-27
-1.17449e-22
-8.90946e-19
3.39034e-14
2.61283e-09
-6.76764e-27
-1.17437e-22
-8.90553e-19
3.39157e-14
2.61334e-09
-6.76518e-27
-1.17356e-22
-8.87924e-19
3.39974e-14
2.61678e-09
-6.76422e-27
-1.17324e-22
-8.86881e-19
3.403e-14
2.61812e-09
-6.75681e-27
-1.17115e-22
-8.80924e-19
3.42046e-14
2.62549e-09
-6.75428e-27
-1.17048e-22
-8.79074e-19
3.42584e-14
2.62775e-09
-6.72718e-27
-1.16842e-22
-8.86747e-19
3.38506e-14
2.61731e-09
-6.71897e-27
-1.16785e-22
-8.89305e-19
3.37201e-14
2.61372e-09
-6.64069e-27
-1.22022e-22
-1.21495e-18
2.20968e-14
2.24507e-09
-6.64066e-27
-1.22014e-22
-1.21205e-18
2.61289e-14
8.52148e-09
-6.71895e-27
-1.16778e-22
-8.86319e-19
3.79683e-14
9.26318e-09
-6.72716e-27
-1.16835e-22
-8.83763e-19
3.80973e-14
9.26669e-09
-6.75425e-27
-1.17041e-22
-8.76107e-19
3.8493e-14
9.2719e-09
-6.75678e-27
-1.17108e-22
-8.77961e-19
3.84351e-14
9.26484e-09
-6.7642e-27
-1.17316e-22
-8.83931e-19
3.82459e-14
9.24097e-09
-6.76515e-27
-1.17348e-22
-8.84976e-19
3.82109e-14
9.23693e-09
-6.76762e-27
-1.1743e-22
-8.87611e-19
3.81226e-14
9.22592e-09
-6.76796e-27
-1.17442e-22
-8.88005e-19
3.81093e-14
9.22433e-09
-6.76856e-27
-1.17462e-22
-8.8868e-19
3.80863e-14
9.22132e-09
-6.76856e-27
-1.17462e-22
-8.8868e-19
3.80863e-14
9.22132e-09
-6.76796e-27
-1.17442e-22
-8.88005e-19
3.81093e-14
9.22433e-09
-6.76762e-27
-1.1743e-22
-8.87611e-19
3.81226e-14
9.22592e-09
-6.76515e-27
-1.17348e-22
-8.84976e-19
3.82109e-14
9.23693e-09
-6.7642e-27
-1.17316e-22
-8.83931e-19
3.82459e-14
9.24097e-09
-6.75678e-27
-1.17108e-22
-8.77961e-19
3.84351e-14
9.26484e-09
-6.75425e-27
-1.17041e-22
-8.76107e-19
3.8493e-14
9.2719e-09
-6.72716e-27
-1.16835e-22
-8.83763e-19
3.80974e-14
9.26669e-09
-6.71895e-27
-1.16778e-22
-8.86319e-19
3.79683e-14
9.26318e-09
-6.64066e-27
-1.22014e-22
-1.21205e-18
2.61289e-14
8.52148e-09
-6.64062e-27
-1.21992e-22
-1.198e-18
4.38295e-14
3.22317e-08
-6.71891e-27
-1.16757e-22
-8.71911e-19
5.63175e-14
3.3917e-08
-6.72712e-27
-1.16814e-22
-8.69365e-19
5.6439e-14
3.39184e-08
-6.75422e-27
-1.1702e-22
-8.61791e-19
5.67832e-14
3.3906e-08
-6.75675e-27
-1.17087e-22
-8.6366e-19
5.67102e-14
3.38856e-08
-6.76416e-27
-1.17295e-22
-8.69691e-19
5.64678e-14
3.38166e-08
-6.76512e-27
-1.17327e-22
-8.70745e-19
5.64246e-14
3.38051e-08
-6.76758e-27
-1.17409e-22
-8.73407e-19
5.63121e-14
3.37731e-08
-6.76792e-27
-1.17421e-22
-8.73804e-19
5.62955e-14
3.37685e-08
-6.76852e-27
-1.17441e-22
-8.74487e-19
5.62657e-14
3.37596e-08
-6.76852e-27
-1.17441e-22
-8.74487e-19
5.62657e-14
3.37596e-08
-6.76792e-27
-1.17421e-22
-8.73804e-19
5.62955e-14
3.37685e-08
-6.76758e-27
-1.17409e-22
-8.73407e-19
5.63121e-14
3.37731e-08
-6.76512e-27
-1.17327e-22
-8.70745e-19
5.64246e-14
3.38051e-08
-6.76416e-27
-1.17295e-22
-8.69691e-19
5.64678e-14
3.38166e-08
-6.75675e-27
-1.17087e-22
-8.6366e-19
5.67102e-14
3.38856e-08
-6.75422e-27
-1.1702e-22
-8.61791e-19
5.67832e-14
3.3906e-08
-6.72712e-27
-1.16814e-22
-8.69365e-19
5.6439e-14
3.39184e-08
-6.71891e-27
-1.16757e-22
-8.71911e-19
5.63176e-14
3.3917e-08
-6.64062e-27
-1.21992e-22
-1.198e-18
4.38295e-14
3.22317e-08
-6.64054e-27
-1.21938e-22
-1.15307e-18
9.30118e-14
8.67808e-08
-6.71884e-27
-1.16703e-22
-8.26206e-19
1.0667e-13
8.981e-08
-6.72705e-27
-1.1676e-22
-8.23698e-19
1.06769e-13
8.98039e-08
-6.75415e-27
-1.16967e-22
-8.16379e-19
1.06972e-13
8.97521e-08
-6.75667e-27
-1.17034e-22
-8.18296e-19
1.06864e-13
8.97095e-08
-6.76409e-27
-1.17242e-22
-8.24501e-19
1.06497e-13
8.95655e-08
-6.76504e-27
-1.17274e-22
-8.25582e-19
1.06434e-13
8.95414e-08
-6.76751e-27
-1.17356e-22
-8.28322e-19
1.06265e-13
8.94743e-08
-6.76785e-27
-1.17368e-22
-8.2873e-19
1.0624e-13
8.94646e-08
-6.76845e-27
-1.17388e-22
-8.29435e-19
1.06194e-13
8.94459e-08
-6.76845e-27
-1.17388e-22
-8.29435e-19
1.06194e-13
8.94459e-08
-6.76785e-27
-1.17368e-22
-8.2873e-19
1.0624e-13
8.94646e-08
-6.76751e-27
-1.17356e-22
-8.28322e-19
1.06265e-13
8.94743e-08
-6.76504e-27
-1.17274e-22
-8.25582e-19
1.06434e-13
8.95414e-08
-6.76409e-27
-1.17242e-22
-8.24501e-19
1.06497e-13
8.95655e-08
-6.75667e-27
-1.17034e-22
-8.18296e-19
1.06864e-13
8.97095e-08
-6.75415e-27
-1.16967e-22
-8.16379e-19
1.06972e-13
8.97521e-08
-6.72705e-27
-1.1676e-22
-8.23698e-19
1.06769e-13
8.98039e-08
-6.71884e-27
-1.16703e-22
-8.26206e-19
1.0667e-13
8.981e-08
-6.64054e-27
-1.21938e-22
-1.15307e-18
9.30118e-14
8.67808e-08
-6.64038e-27
-1.21813e-22
-1.04358e-18
1.95845e-13
1.79637e-07
-6.71869e-27
-1.16579e-22
-7.15681e-19
2.10964e-13
1.83916e-07
-6.7269e-27
-1.16636e-22
-7.13273e-19
2.11011e-13
1.83893e-07
-6.754e-27
-1.16843e-22
-7.06573e-19
2.10916e-13
1.83762e-07
-6.75653e-27
-1.1691e-22
-7.08598e-19
2.10744e-13
1.8369e-07
-6.76394e-27
-1.17119e-22
-7.15198e-19
2.10146e-13
1.83448e-07
-6.7649e-27
-1.17151e-22
-7.16337e-19
2.10048e-13
1.83408e-07
-6.76736e-27
-1.17233e-22
-7.19256e-19
2.09774e-13
1.83295e-07
-6.7677e-27
-1.17245e-22
-7.19688e-19
2.09735e-13
1.83278e-07
-6.7683e-27
-1.17266e-22
-7.20443e-19
2.09659e-13
1.83247e-07
-6.7683e-27
-1.17266e-22
-7.20443e-19
2.09659e-13
1.83247e-07
-6.7677e-27
-1.17245e-22
-7.19688e-19
2.09735e-13
1.83278e-07
-6.76736e-27
-1.17233e-22
-7.19256e-19
2.09774e-13
1.83295e-07
-6.7649e-27
-1.17151e-22
-7.16337e-19
2.10048e-13
1.83408e-07
-6.76394e-27
-1.17119e-22
-7.15198e-19
2.10146e-13
1.83448e-07
-6.75653e-27
-1.1691e-22
-7.08598e-19
2.10744e-13
1.8369e-07
-6.754e-27
-1.16843e-22
-7.06573e-19
2.10916e-13
1.83762e-07
-6.7269e-27
-1.16636e-22
-7.13273e-19
2.11011e-13
1.83893e-07
-6.71869e-27
-1.16579e-22
-7.15681e-19
2.10964e-13
1.83916e-07
-6.64038e-27
-1.21813e-22
-1.04358e-18
1.95845e-13
1.79637e-07
-6.64006e-27
-1.21547e-22
-8.21462e-19
3.75234e-13
3.11977e-07
-6.71837e-27
-1.16315e-22
-4.92844e-19
3.91625e-13
3.17e-07
-6.72659e-27
-1.16373e-22
-4.90646e-19
3.91577e-13
3.16946e-07
-6.75368e-27
-1.16581e-22
-4.8521e-19
3.9094e-13
3.16667e-07
-6.75621e-27
-1.16649e-22
-4.87439e-19
3.90666e-13
3.1656e-07
-6.76363e-27
-1.16859e-22
-4.948e-19
3.89699e-13
3.16198e-07
-6.76459e-27
-1.16892e-22
-4.9605e-19
3.89545e-13
3.16138e-07
-6.76705e-27
-1.16974e-22
-4.99311e-19
3.89103e-13
3.15969e-07
-6.76739e-27
-1.16986e-22
-4.99789e-19
3.89041e-13
3.15944e-07
-6.76799e-27
-1.17007e-22
-5.00641e-19
3.88918e-13
3.15896e-07
-6.76799e-27
-1.17007e-22
-5.00641e-19
3.88918e-13
3.15896e-07
-6.76739e-27
-1.16986e-22
-4.99789e-19
3.89041e-13
3.15944e-07
-6.76705e-27
-1.16974e-22
-4.99311e-19
3.89103e-13
3.15969e-07
-6.76459e-27
-1.16892e-22
-4.9605e-19
3.89545e-13
3.16138e-07
-6.76363e-27
-1.16859e-22
-4.948e-19
3.89699e-13
3.16198e-07
-6.75621e-27
-1.16649e-22
-4.87439e-19
3.90666e-13
3.1656e-07
-6.75368e-27
-1.16581e-22
-4.8521e-19
3.9094e-13
3.16667e-07
-6.72659e-27
-1.16373e-22
-4.90646e-19
3.91577e-13
3.16946e-07
-6.71837e-27
-1.16315e-22
-4.92844e-19
3.91625e-13
3.17e-07
-6.64006e-27
-1.21547e-22
-8.21462e-19
3.75234e-13
3.11977e-07
-6.6394e-27
-1.21036e-22
-4.24712e-19
6.53257e-13
4.8227e-07
-6.71773e-27
-1.15808e-22
-9.6801e-20
6.70142e-13
4.87333e-07
-6.72595e-27
-1.15866e-22
-9.49878e-20
6.69938e-13
4.87231e-07
-6.75305e-27
-1.16079e-22
-9.1844e-20
6.68409e-13
4.86702e-07
-6.75558e-27
-1.16147e-22
-9.4422e-20
6.67987e-13
4.86551e-07
-6.763e-27
-1.16359e-22
-1.03092e-19
6.66474e-13
4.86037e-07
-6.76396e-27
-1.16392e-22
-1.04532e-19
6.66238e-13
4.85953e-07
-6.76643e-27
-1.16475e-22
-1.08381e-19
6.65549e-13
4.85714e-07
-6.76677e-27
-1.16487e-22
-1.08936e-19
6.65454e-13
4.8568e-07
-6.76737e-27
-1.16508e-22
-1.09954e-19
6.65261e-13
4.85612e-07
-6.76737e-27
-1.16508e-22
-1.09954e-19
6.65261e-13
4.85612e-07
-6.76677e-27
-1.16487e-22
-1.08936e-19
6.65454e-13
4.8568e-07
-6.76643e-27
-1.16475e-22
-1.08381e-19
6.65549e-13
4.85714e-07
-6.76396e-27
-1.16392e-22
-1.04532e-19
6.66238e-13
4.85953e-07
-6.763e-27
-1.16359e-22
-1.03092e-19
6.66474e-13
4.86037e-07
-6.75558e-27
-1.16147e-22
-9.4422e-20
6.67987e-13
4.86551e-07
-6.75305e-27
-1.16079e-22
-9.1844e-20
6.68409e-13
4.86702e-07
-6.72595e-27
-1.15866e-22
-9.49878e-20
6.69938e-13
4.87231e-07
-6.71773e-27
-1.15808e-22
-9.68008e-20
6.70142e-13
4.87333e-07
-6.6394e-27
-1.21036e-22
-4.24712e-19
6.53257e-13
4.8227e-07
-6.63817e-27
-1.20125e-22
2.21933e-19
1.05096e-12
6.88622e-07
-6.71652e-27
-1.14908e-22
5.46068e-19
1.06691e-12
6.92921e-07
-6.72475e-27
-1.14967e-22
5.47239e-19
1.06647e-12
6.92749e-07
-6.75186e-27
-1.15187e-22
5.46572e-19
1.06358e-12
6.91839e-07
-6.75439e-27
-1.15256e-22
5.43443e-19
1.06296e-12
6.91635e-07
-6.76182e-27
-1.15472e-22
5.32688e-19
1.06067e-12
6.90923e-07
-6.76278e-27
-1.15506e-22
5.3095e-19
1.06033e-12
6.9081e-07
-6.76525e-27
-1.15591e-22
5.26167e-19
1.05929e-12
6.90483e-07
-6.76559e-27
-1.15603e-22
5.25488e-19
1.05915e-12
6.90437e-07
-6.76619e-27
-1.15624e-22
5.24206e-19
1.05886e-12
6.90344e-07
-6.76619e-27
-1.15624e-22
5.24205e-19
1.05886e-12
6.90344e-07
-6.76559e-27
-1.15603e-22
5.25488e-19
1.05915e-12
6.90437e-07
-6.76525e-27
-1.15591e-22
5.26167e-19
1.05929e-12
6.90483e-07
-6.76278e-27
-1.15506e-22
5.3095e-19
1.06033e-12
6.9081e-07
-6.76182e-27
-1.15472e-22
5.32688e-19
1.06067e-12
6.90923e-07
-6.75439e-27
-1.15256e-22
5.43443e-19
1.06296e-12
6.91635e-07
-6.75186e-27
-1.15187e-22
5.46572e-19
1.06358e-12
6.91839e-07
-6.72475e-27
-1.14967e-22
5.47239e-19
1.06647e-12
6.92749e-07
-6.71652e-27
-1.14908e-22
5.46069e-19
1.06691e-12
6.92921e-07
-6.63817e-27
-1.20125e-22
2.21933e-19
1.05096e-12
6.88622e-07
-6.63597e-27
-1.18608e-22
1.2062e-18
1.58815e-12
9.28851e-07
-6.71437e-27
-1.13413e-22
1.52127e-18
1.60103e-12
9.31475e-07
-6.7226e-27
-1.13474e-22
1.52144e-18
1.60025e-12
9.31212e-07
-6.74974e-27
-1.13707e-22
1.51484e-18
1.59541e-12
9.29761e-07
-6.75227e-27
-1.13778e-22
1.51089e-18
1.59451e-12
9.29492e-07
-6.75971e-27
-1.14e-22
1.49701e-18
1.59119e-12
9.28526e-07
-6.76067e-27
-1.14034e-22
1.49482e-18
1.59069e-12
9.28379e-07
-6.76315e-27
-1.14122e-22
1.48864e-18
1.58919e-12
9.27939e-07
-6.76348e-27
-1.14135e-22
1.48778e-18
1.58899e-12
9.27878e-07
-6.76409e-27
-1.14157e-22
1.4861e-18
1.58856e-12
9.27753e-07
-6.76409e-27
-1.14157e-22
1.4861e-18
1.58856e-12
9.27753e-07
-6.76348e-27
-1.14135e-22
1.48778e-18
1.58899e-12
9.27878e-07
-6.76315e-27
-1.14122e-22
1.48864e-18
1.58919e-12
9.27939e-07
-6.76067e-27
-1.14034e-22
1.49482e-18
1.59069e-12
9.28379e-07
-6.75971e-27
-1.14e-22
1.49701e-18
1.59119e-12
9.28526e-07
-6.75227e-27
-1.13778e-22
1.51089e-18
1.59451e-12
9.29492e-07
-6.74974e-27
-1.13707e-22
1.51484e-18
1.59541e-12
9.29761e-07
-6.7226e-27
-1.13474e-22
1.52144e-18
1.60025e-12
9.31212e-07
-6.71437e-27
-1.13413e-22
1.52127e-18
1.60103e-12
9.31475e-07
-6.63597e-27
-1.18608e-22
1.2062e-18
1.58815e-12
9.28851e-07
-6.63228e-27
-1.16281e-22
2.52692e-18
2.12383e-12
9.26554e-07
-6.71077e-27
-1.11125e-22
2.82763e-18
2.13365e-12
9.29239e-07
-6.71901e-27
-1.11188e-22
2.82645e-18
2.13255e-12
9.28979e-07
-6.74618e-27
-1.1144e-22
2.81182e-18
2.12577e-12
9.2755e-07
-6.74872e-27
-1.11514e-22
2.80678e-18
2.1246e-12
9.27284e-07
-6.75618e-27
-1.11746e-22
2.78872e-18
2.12024e-12
9.26328e-07
-6.75714e-27
-1.11781e-22
2.78595e-18
2.1196e-12
9.26182e-07
-6.75963e-27
-1.11874e-22
2.7779e-18
2.11763e-12
9.25747e-07
-6.75997e-27
-1.11887e-22
2.7768e-18
2.11737e-12
9.25687e-07
-6.76057e-27
-1.1191e-22
2.77459e-18
2.11681e-12
9.25563e-07
-6.76057e-27
-1.1191e-22
2.77459e-18
2.11681e-12
9.25563e-07
-6.75997e-27
-1.11887e-22
2.7768e-18
2.11737e-12
9.25687e-07
-6.75963e-27
-1.11874e-22
2.7779e-18
2.11763e-12
9.25747e-07
-6.75714e-27
-1.11781e-22
2.78595e-18
2.1196e-12
9.26182e-07
-6.75618e-27
-1.11746e-22
2.78872e-18
2.12024e-12
9.26328e-07
-6.74872e-27
-1.11514e-22
2.80678e-18
2.1246e-12
9.27284e-07
-6.74618e-27
-1.1144e-22
2.81182e-18
2.12577e-12
9.2755e-07
-6.71901e-27
-1.11188e-22
2.82645e-18
2.13255e-12
9.28979e-07
-6.71077e-27
-1.11125e-22
2.82763e-18
2.13365e-12
9.29239e-07
-6.63228e-27
-1.16281e-22
2.52692e-18
2.12383e-12
9.26554e-07
-6.62645e-27
-1.12938e-22
4.18287e-18
2.65799e-12
9.24326e-07
-6.70509e-27
-1.07842e-22
4.4639e-18
2.66477e-12
9.27069e-07
-6.71334e-27
-1.0791e-22
4.46103e-18
2.66334e-12
9.26813e-07
-6.74058e-27
-1.0819e-22
4.43629e-18
2.65464e-12
9.25404e-07
-6.74313e-27
-1.08267e-22
4.42991e-18
2.6532e-12
9.25141e-07
-6.75061e-27
-1.08513e-22
4.40664e-18
2.64782e-12
9.24196e-07
-6.75158e-27
-1.08551e-22
4.40314e-18
2.64703e-12
9.24051e-07
-6.75408e-27
-1.08649e-22
4.39277e-18
2.64461e-12
9.2362e-07
-6.75442e-27
-1.08663e-22
4.39136e-18
2.64428e-12
9.2356e-07
-6.75503e-27
-1.08689e-22
4.3885e-18
2.6436e-12
9.23438e-07
-6.75503e-27
-1.08689e-22
4.3885e-18
2.6436e-12
9.23438e-07
-6.75442e-27
-1.08663e-22
4.39136e-18
2.64428e-12
9.2356e-07
-6.75408e-27
-1.08649e-22
4.39277e-18
2.64461e-12
9.2362e-07
-6.75158e-27
-1.08551e-22
4.40314e-18
2.64703e-12
9.24051e-07
-6.75061e-27
-1.08513e-22
4.40664e-18
2.64782e-12
9.24196e-07
-6.74313e-27
-1.08267e-22
4.42991e-18
2.6532e-12
9.25141e-07
-6.74058e-27
-1.0819e-22
4.43629e-18
2.65464e-12
9.25404e-07
-6.71334e-27
-1.0791e-22
4.46103e-18
2.66334e-12
9.26813e-07
-6.70509e-27
-1.07842e-22
4.4639e-18
2.66477e-12
9.27069e-07
-6.62645e-27
-1.12938e-22
4.18287e-18
2.65799e-12
9.24326e-07
-6.6177e-27
-1.08376e-22
6.17272e-18
3.19055e-12
9.22161e-07
-6.69657e-27
-1.03367e-22
6.42876e-18
3.19431e-12
9.24959e-07
-6.70484e-27
-1.03442e-22
6.42386e-18
3.19256e-12
9.24707e-07
-6.73218e-27
-1.03759e-22
6.38696e-18
3.18196e-12
9.23318e-07
-6.73474e-27
-1.03841e-22
6.37897e-18
3.18025e-12
9.23058e-07
-6.74227e-27
-1.04107e-22
6.34948e-18
3.17385e-12
9.22122e-07
-6.74324e-27
-1.04147e-22
6.34511e-18
3.17292e-12
9.21978e-07
-6.74576e-27
-1.04254e-22
6.33196e-18
3.17004e-12
9.21552e-07
-6.7461e-27
-1.04269e-22
6.3302e-18
3.16966e-12
9.21493e-07
-6.74672e-27
-1.04297e-22
6.32654e-18
3.16884e-12
9.21372e-07
-6.74672e-27
-1.04297e-22
6.32654e-18
3.16884e-12
9.21372e-07
-6.7461e-27
-1.04269e-22
6.3302e-18
3.16966e-12
9.21493e-07
-6.74576e-27
-1.04254e-22
6.33196e-18
3.17004e-12
9.21552e-07
-6.74324e-27
-1.04147e-22
6.34511e-18
3.17292e-12
9.21978e-07
-6.74227e-27
-1.04107e-22
6.34948e-18
3.17385e-12
9.22122e-07
-6.73474e-27
-1.03841e-22
6.37897e-18
3.18025e-12
9.23058e-07
-6.73218e-27
-1.03759e-22
6.38696e-18
3.18196e-12
9.23318e-07
-6.70484e-27
-1.03442e-22
6.42386e-18
3.19256e-12
9.24707e-07
-6.69657e-27
-1.03367e-22
6.42876e-18
3.19431e-12
9.24959e-07
-6.6177e-27
-1.08376e-22
6.17272e-18
3.19055e-12
9.22161e-07
-6.60512e-27
-1.02392e-22
8.49507e-18
3.72143e-12
9.20053e-07
-6.68434e-27
-9.7503e-23
8.7208e-18
3.72218e-12
9.22905e-07
-6.69263e-27
-9.75857e-23
8.71354e-18
3.72012e-12
9.22657e-07
-6.7201e-27
-9.79535e-23
8.66245e-18
3.70764e-12
9.21287e-07
-6.72268e-27
-9.80418e-23
8.6526e-18
3.70567e-12
9.21029e-07
-6.73028e-27
-9.83322e-23
8.61586e-18
3.69826e-12
9.20102e-07
-6.73126e-27
-9.83756e-23
8.61049e-18
3.69719e-12
9.1996e-07
-6.73381e-27
-9.84938e-23
8.59411e-18
3.69385e-12
9.19538e-07
-6.73416e-27
-9.85103e-23
8.59193e-18
3.69341e-12
9.19479e-07
-6.73478e-27
-9.85411e-23
8.58736e-18
3.69247e-12
9.19359e-07
-6.73478e-27
-9.85411e-23
8.58736e-18
3.69247e-12
9.19359e-07
-6.73416e-27
-9.85103e-23
8.59193e-18
3.69341e-12
9.19479e-07
-6.73381e-27
-9.84938e-23
8.59411e-18
3.69385e-12
9.19538e-07
-6.73126e-27
-9.83756e-23
8.61049e-18
3.69719e-12
9.1996e-07
-6.73028e-27
-9.83322e-23
8.61586e-18
3.69826e-12
9.20102e-07
-6.72268e-27
-9.80418e-23
8.6526e-18
3.70567e-12
9.21029e-07
-6.7201e-27
-9.79535e-23
8.66245e-18
3.70764e-12
9.21287e-07
-6.69263e-27
-9.75857e-23
8.71354e-18
3.72012e-12
9.22657e-07
-6.68433e-27
-9.7503e-23
8.7208e-18
3.72218e-12
9.22905e-07
-6.60512e-27
-1.02392e-22
8.49507e-18
3.72143e-12
9.20053e-07
-6.58766e-27
-9.47843e-23
1.11484e-17
4.25056e-12
9.17999e-07
-6.66737e-27
-9.0053e-23
1.13385e-17
4.24832e-12
9.20903e-07
-6.6757e-27
-9.01462e-23
1.13286e-17
4.24594e-12
9.20658e-07
-6.70336e-27
-9.05777e-23
1.12613e-17
4.23161e-12
9.19307e-07
-6.70597e-27
-9.0674e-23
1.12493e-17
4.22938e-12
9.19051e-07
-6.71366e-27
-9.09962e-23
1.12043e-17
4.22097e-12
9.18133e-07
-6.71465e-27
-9.10439e-23
1.11978e-17
4.21976e-12
9.17993e-07
-6.71724e-27
-9.11762e-23
1.11778e-17
4.21598e-12
9.17574e-07
-6.71759e-27
-9.11944e-23
1.11751e-17
4.21548e-12
9.17516e-07
-6.71823e-27
-9.12293e-23
1.11695e-17
4.21441e-12
9.17398e-07
-6.71823e-27
-9.12293e-23
1.11695e-17
4.21441e-12
9.17398e-07
-6.71759e-27
-9.11944e-23
1.11751e-17
4.21548e-12
9.17516e-07
-6.71724e-27
-9.11762e-23
1.11778e-17
4.21598e-12
9.17574e-07
-6.71465e-27
-9.10439e-23
1.11978e-17
4.21976e-12
9.17993e-07
-6.71366e-27
-9.09962e-23
1.12043e-17
4.22097e-12
9.18133e-07
-6.70597e-27
-9.0674e-23
1.12493e-17
4.22938e-12
9.19051e-07
-6.70336e-27
-9.05777e-23
1.12613e-17
4.23161e-12
9.19307e-07
-6.6757e-27
-9.01461e-23
1.13286e-17
4.24594e-12
9.20658e-07
-6.66737e-27
-9.0053e-23
1.13385e-17
4.24832e-12
9.20903e-07
-6.58766e-27
-9.47843e-23
1.11484e-17
4.25056e-12
9.17999e-07
-6.56414e-27
-8.5353e-23
1.41313e-17
4.77786e-12
9.15995e-07
-6.64455e-27
-8.08223e-23
1.42803e-17
4.77264e-12
9.18949e-07
-6.65293e-27
-8.09283e-23
1.42674e-17
4.76995e-12
9.18707e-07
-6.68084e-27
-8.14389e-23
1.41819e-17
4.75379e-12
9.17374e-07
-6.68347e-27
-8.15452e-23
1.41676e-17
4.7513e-12
9.17121e-07
-6.69129e-27
-8.19065e-23
1.41134e-17
4.7419e-12
9.16211e-07
-6.6923e-27
-8.19596e-23
1.41056e-17
4.74055e-12
9.16072e-07
-6.69495e-27
-8.21093e-23
1.40814e-17
4.73632e-12
9.15657e-07
-6.69531e-27
-8.21297e-23
1.40783e-17
4.73577e-12
9.156e-07
-6.69596e-27
-8.21695e-23
1.40715e-17
4.73457e-12
9.15482e-07
-6.69596e-27
-8.21695e-23
1.40715e-17
4.73457e-12
9.15482e-07
-6.69531e-27
-8.21297e-23
1.40783e-17
4.73577e-12
9.156e-07
-6.69495e-27
-8.21093e-23
1.40814e-17
4.73632e-12
9.15657e-07
-6.6923e-27
-8.19596e-23
1.41056e-17
4.74055e-12
9.16072e-07
-6.69129e-27
-8.19065e-23
1.41134e-17
4.7419e-12
9.16211e-07
-6.68347e-27
-8.15452e-23
1.41676e-17
4.7513e-12
9.17121e-07
-6.68084e-27
-8.14389e-23
1.41819e-17
4.75379e-12
9.17374e-07
-6.65293e-27
-8.09283e-23
1.42674e-17
4.76995e-12
9.18707e-07
-6.64455e-27
-8.08223e-23
1.42803e-17
4.77264e-12
9.18949e-07
-6.56414e-27
-8.5353e-23
1.41313e-17
4.77786e-12
9.15995e-07
-6.53327e-27
-7.38985e-23
1.74419e-17
5.30323e-12
9.14036e-07
-6.6146e-27
-6.96168e-23
1.75446e-17
5.29505e-12
9.17038e-07
-6.62304e-27
-6.97385e-23
1.75283e-17
5.29206e-12
9.168e-07
-6.65129e-27
-7.0345e-23
1.74228e-17
5.27408e-12
9.15484e-07
-6.65396e-27
-7.04633e-23
1.74059e-17
5.27135e-12
9.15233e-07
-6.66194e-27
-7.08722e-23
1.73414e-17
5.26097e-12
9.14332e-07
-6.66298e-27
-7.09316e-23
1.73322e-17
5.25948e-12
9.14194e-07
-6.66569e-27
-7.11024e-23
1.73035e-17
5.25481e-12
9.13783e-07
-6.66606e-27
-7.11255e-23
1.72998e-17
5.2542e-12
9.13726e-07
-6.66673e-27
-7.11713e-23
1.72917e-17
5.25288e-12
9.1361e-07
-6.66673e-27
-7.11713e-23
1.72917e-17
5.25288e-12
9.1361e-07
-6.66606e-27
-7.11255e-23
1.72998e-17
5.2542e-12
9.13726e-07
-6.66569e-27
-7.11024e-23
1.73035e-17
5.25481e-12
9.13783e-07
-6.66298e-27
-7.09316e-23
1.73322e-17
5.25948e-12
9.14194e-07
-6.66194e-27
-7.08721e-23
1.73414e-17
5.26097e-12
9.14332e-07
-6.65396e-27
-7.04633e-23
1.74059e-17
5.27135e-12
9.15233e-07
-6.65129e-27
-7.0345e-23
1.74228e-17
5.27408e-12
9.15484e-07
-6.62304e-27
-6.97385e-23
1.75283e-17
5.29206e-12
9.168e-07
-6.6146e-27
-6.96168e-23
1.75446e-17
5.29505e-12
9.17038e-07
-6.53327e-27
-7.38985e-23
1.74419e-17
5.30323e-12
9.14036e-07
-6.49361e-27
-6.02225e-23
2.10786e-17
5.8266e-12
9.12118e-07
-6.57615e-27
-5.62439e-23
2.11295e-17
5.81547e-12
9.15167e-07
-6.58466e-27
-5.63842e-23
2.11096e-17
5.81219e-12
9.14932e-07
-6.61334e-27
-5.71052e-23
2.09821e-17
5.79242e-12
9.13633e-07
-6.61607e-27
-5.72377e-23
2.09624e-17
5.78944e-12
9.13385e-07
-6.62426e-27
-5.77032e-23
2.08867e-17
5.77809e-12
9.12491e-07
-6.62532e-27
-5.77703e-23
2.0876e-17
5.77646e-12
9.12355e-07
-6.62813e-27
-5.79663e-23
2.08423e-17
5.77136e-12
9.11947e-07
-6.62851e-27
-5.79925e-23
2.08379e-17
5.77069e-12
9.11891e-07
-6.62921e-27
-5.80454e-23
2.08284e-17
5.76925e-12
9.11775e-07
-6.62921e-27
-5.80454e-23
2.08284e-17
5.76925e-12
9.11775e-07
-6.62851e-27
-5.79925e-23
2.08379e-17
5.77069e-12
9.11891e-07
-6.62813e-27
-5.79663e-23
2.08423e-17
5.77136e-12
9.11947e-07
-6.62532e-27
-5.77703e-23
2.0876e-17
5.77646e-12
9.12355e-07
-6.62426e-27
-5.77032e-23
2.08867e-17
5.77809e-12
9.12491e-07
-6.61607e-27
-5.72377e-23
2.09624e-17
5.78944e-12
9.13385e-07
-6.61334e-27
-5.71052e-23
2.09821e-17
5.79242e-12
9.13633e-07
-6.58466e-27
-5.63842e-23
2.11096e-17
5.81219e-12
9.14932e-07
-6.57615e-27
-5.62439e-23
2.11295e-17
5.81547e-12
9.15167e-07
-6.49361e-27
-6.02226e-23
2.10786e-17
5.8266e-12
9.12118e-07
-6.44358e-27
-4.41281e-23
2.50396e-17
6.34786e-12
9.10233e-07
-6.52768e-27
-4.05122e-23
2.50333e-17
6.3338e-12
9.13327e-07
-6.53629e-27
-4.06745e-23
2.50094e-17
6.33023e-12
9.13095e-07
-6.56551e-27
-4.15299e-23
2.48581e-17
6.3087e-12
9.11813e-07
-6.5683e-27
-4.16791e-23
2.48353e-17
6.30547e-12
9.11567e-07
-6.57676e-27
-4.2211e-23
2.47475e-17
6.29316e-12
9.10681e-07
-6.57785e-27
-4.22871e-23
2.47352e-17
6.2914e-12
9.10546e-07
-6.58078e-27
-4.25126e-23
2.4696e-17
6.28587e-12
9.10142e-07
-6.58117e-27
-4.25425e-23
2.4691e-17
6.28515e-12
9.10086e-07
-6.5819e-27
-4.26038e-23
2.46799e-17
6.28358e-12
9.09972e-07
-6.5819e-27
-4.26038e-23
2.46799e-17
6.28358e-12
9.09972e-07
-6.58117e-27
-4.25425e-23
2.4691e-17
6.28515e-12
9.10086e-07
-6.58078e-27
-4.25126e-23
2.4696e-17
6.28587e-12
9.10142e-07
-6.57785e-27
-4.22871e-23
2.47352e-17
6.2914e-12
9.10546e-07
-6.57675e-27
-4.2211e-23
2.47475e-17
6.29316e-12
9.10681e-07
-6.5683e-27
-4.1679e-23
2.48353e-17
6.30547e-12
9.11567e-07
-6.56551e-27
-4.15299e-23
2.48581e-17
6.3087e-12
9.11813e-07
-6.53628e-27
-4.06745e-23
2.50094e-17
6.33023e-12
9.13095e-07
-6.52768e-27
-4.05121e-23
2.50333e-17
6.3338e-12
9.13327e-07
-6.44358e-27
-4.41281e-23
2.50396e-17
6.34786e-12
9.10233e-07
-6.3815e-27
-2.54194e-23
2.9323e-17
6.86691e-12
9.08347e-07
-6.46756e-27
-2.22315e-23
2.92541e-17
6.84994e-12
9.11486e-07
-6.47628e-27
-2.24193e-23
2.9226e-17
6.84608e-12
9.11258e-07
-6.50618e-27
-2.34307e-23
2.9049e-17
6.82282e-12
9.09993e-07
-6.50905e-27
-2.35991e-23
2.90229e-17
6.81935e-12
9.09748e-07
-6.51783e-27
-2.42082e-23
2.8922e-17
6.80609e-12
9.08871e-07
-6.51897e-27
-2.42946e-23
2.89079e-17
6.8042e-12
9.08736e-07
-6.52205e-27
-2.45543e-23
2.88629e-17
6.79825e-12
9.08336e-07
-6.52246e-27
-2.45885e-23
2.88571e-17
6.79747e-12
9.08281e-07
-6.52323e-27
-2.46595e-23
2.88444e-17
6.79578e-12
9.08167e-07
-6.52323e-27
-2.46595e-23
2.88444e-17
6.79578e-12
9.08167e-07
-6.52246e-27
-2.45885e-23
2.88571e-17
6.79747e-12
9.08281e-07
-6.52205e-27
-2.45543e-23
2.88629e-17
6.79825e-12
9.08336e-07
-6.51897e-27
-2.42946e-23
2.89079e-17
6.8042e-12
9.08736e-07
-6.51783e-27
-2.42081e-23
2.8922e-17
6.80609e-12
9.08871e-07
-6.50905e-27
-2.35991e-23
2.90229e-17
6.81935e-12
9.09748e-07
-6.50618e-27
-2.34307e-23
2.9049e-17
6.82282e-12
9.09993e-07
-6.47628e-27
-2.24193e-23
2.9226e-17
6.84608e-12
9.11258e-07
-6.46756e-27
-2.22315e-23
2.92541e-17
6.84994e-12
9.11486e-07
-6.3815e-27
-2.54194e-23
2.9323e-17
6.86691e-12
9.08347e-07
0.000105712
1.25428e-05
1.37642e-07
-1.38553e-09
-6.18883e-12
1.05032e-14
1.43612e-14
1.44131e-14
1.44244e-14
1.44263e-14
1.44273e-14
1.44341e-14
1.4469e-14
1.45116e-14
1.48635e-14
1.51654e-14
1.83417e-14
2.00659e-14
6.39735e-14
7.48031e-14
0.000120062
1.48162e-05
2.00383e-07
-1.1103e-09
-6.39205e-12
1.01012e-14
1.43594e-14
1.44126e-14
1.44241e-14
1.4426e-14
1.44266e-14
1.44321e-14
1.44678e-14
1.4511e-14
1.48689e-14
1.51744e-14
1.83921e-14
2.01277e-14
6.45409e-14
7.54958e-14
0.000120196
1.48334e-05
2.00719e-07
-1.1076e-09
-6.38764e-12
1.01014e-14
1.43594e-14
1.44127e-14
1.44241e-14
1.44261e-14
1.44266e-14
1.44322e-14
1.44679e-14
1.45112e-14
1.48692e-14
1.51747e-14
1.83931e-14
2.01287e-14
6.45465e-14
7.55015e-14
0.000120623
1.48701e-05
2.00879e-07
-1.09679e-09
-6.33888e-12
1.01287e-14
1.43593e-14
1.44127e-14
1.44242e-14
1.44261e-14
1.44267e-14
1.44328e-14
1.44685e-14
1.45119e-14
1.48703e-14
1.5176e-14
1.83963e-14
2.01322e-14
6.4564e-14
7.55169e-14
0.00012053
1.48547e-05
2.00397e-07
-1.0987e-09
-6.33639e-12
1.01319e-14
1.43593e-14
1.44127e-14
1.44242e-14
1.44261e-14
1.44267e-14
1.44328e-14
1.44686e-14
1.45119e-14
1.48703e-14
1.51761e-14
1.83964e-14
2.01323e-14
6.45644e-14
7.55172e-14
0.000120248
1.48005e-05
1.98649e-07
-1.10504e-09
-6.32556e-12
1.01442e-14
1.43593e-14
1.44127e-14
1.44242e-14
1.44261e-14
1.44267e-14
1.44328e-14
1.44686e-14
1.4512e-14
1.48704e-14
1.51762e-14
1.83966e-14
2.01325e-14
6.45651e-14
7.55176e-14
0.000120194
1.47916e-05
1.98378e-07
-1.10624e-09
-6.32483e-12
1.01455e-14
1.43593e-14
1.44127e-14
1.44242e-14
1.44261e-14
1.44267e-14
1.44328e-14
1.44686e-14
1.4512e-14
1.48704e-14
1.51762e-14
1.83966e-14
2.01325e-14
6.45651e-14
7.55177e-14
0.000120062
1.47668e-05
1.97587e-07
-1.10948e-09
-6.32189e-12
1.01498e-14
1.43593e-14
1.44127e-14
1.44242e-14
1.44261e-14
1.44267e-14
1.44328e-14
1.44686e-14
1.4512e-14
1.48704e-14
1.51762e-14
1.83966e-14
2.01325e-14
6.45651e-14
7.55177e-14
0.000120041
1.47634e-05
1.97481e-07
-1.10997e-09
-6.32171e-12
1.01502e-14
1.43593e-14
1.44127e-14
1.44242e-14
1.44261e-14
1.44267e-14
1.44328e-14
1.44686e-14
1.4512e-14
1.48704e-14
1.51762e-14
1.83966e-14
2.01325e-14
6.45651e-14
7.55177e-14
0.000120006
1.47567e-05
1.97268e-07
-1.11088e-09
-6.3211e-12
1.01513e-14
1.43593e-14
1.44127e-14
1.44242e-14
1.44261e-14
1.44267e-14
1.44328e-14
1.44686e-14
1.4512e-14
1.48704e-14
1.51762e-14
1.83966e-14
2.01325e-14
6.45651e-14
7.55177e-14
0.000120006
1.47567e-05
1.97268e-07
-1.11088e-09
-6.3211e-12
1.01513e-14
1.43593e-14
1.44127e-14
1.44242e-14
1.44261e-14
1.44267e-14
1.44328e-14
1.44686e-14
1.4512e-14
1.48704e-14
1.51762e-14
1.83966e-14
2.01325e-14
6.45651e-14
7.55177e-14
0.000120041
1.47634e-05
1.97481e-07
-1.10997e-09
-6.32171e-12
1.01502e-14
1.43593e-14
1.44127e-14
1.44242e-14
1.44261e-14
1.44267e-14
1.44328e-14
1.44686e-14
1.4512e-14
1.48704e-14
1.51762e-14
1.83966e-14
2.01325e-14
6.45651e-14
7.55177e-14
0.000120062
1.47668e-05
1.97587e-07
-1.10948e-09
-6.32189e-12
1.01498e-14
1.43593e-14
1.44127e-14
1.44242e-14
1.44261e-14
1.44267e-14
1.44328e-14
1.44686e-14
1.4512e-14
1.48704e-14
1.51762e-14
1.83966e-14
2.01325e-14
6.45651e-14
7.55177e-14
0.000120194
1.47916e-05
1.98378e-07
-1.10624e-09
-6.32483e-12
1.01455e-14
1.43593e-14
1.44127e-14
1.44242e-14
1.44261e-14
1.44267e-14
1.44328e-14
1.44686e-14
1.4512e-14
1.48704e-14
1.51762e-14
1.83966e-14
2.01325e-14
6.45651e-14
7.55177e-14
0.000120248
1.48005e-05
1.98649e-07
-1.10504e-09
-6.32556e-12
1.01442e-14
1.43593e-14
1.44127e-14
1.44242e-14
1.44261e-14
1.44267e-14
1.44328e-14
1.44686e-14
1.4512e-14
1.48704e-14
1.51762e-14
1.83966e-14
2.01325e-14
6.45651e-14
7.55176e-14
0.00012053
1.48547e-05
2.00397e-07
-1.0987e-09
-6.33639e-12
1.01319e-14
1.43593e-14
1.44127e-14
1.44242e-14
1.44261e-14
1.44267e-14
1.44328e-14
1.44686e-14
1.45119e-14
1.48703e-14
1.51761e-14
1.83964e-14
2.01323e-14
6.45644e-14
7.55172e-14
0.000120623
1.48701e-05
2.00879e-07
-1.09679e-09
-6.33888e-12
1.01287e-14
1.43593e-14
1.44127e-14
1.44242e-14
1.44261e-14
1.44267e-14
1.44328e-14
1.44685e-14
1.45119e-14
1.48703e-14
1.5176e-14
1.83963e-14
2.01322e-14
6.4564e-14
7.55169e-14
0.000120196
1.48334e-05
2.00719e-07
-1.1076e-09
-6.38764e-12
1.01014e-14
1.43594e-14
1.44127e-14
1.44241e-14
1.44261e-14
1.44266e-14
1.44322e-14
1.44679e-14
1.45112e-14
1.48692e-14
1.51747e-14
1.83931e-14
2.01287e-14
6.45465e-14
7.55015e-14
0.000120062
1.48162e-05
2.00383e-07
-1.1103e-09
-6.39205e-12
1.01012e-14
1.43594e-14
1.44126e-14
1.44241e-14
1.4426e-14
1.44266e-14
1.44321e-14
1.44678e-14
1.4511e-14
1.48689e-14
1.51744e-14
1.83921e-14
2.01277e-14
6.45409e-14
7.54958e-14
0.000105712
1.25428e-05