/*--------------------------------*- C++ -*----------------------------------*\
  =========                 |
  \\      /  F ield         | OpenFOAM: The Open Source CFD Toolbox
   \\    /   O peration     | Website:  https://openfoam.org
    \\  /    A nd           | Version:  8
     \\/     M anipulation  |
\*---------------------------------------------------------------------------*/
FoamFile
{
    version     2.0;
    format      ascii;
    class       volScalarField;
    location    "3";
    object      p;
}
// * * * * * * * * * * * * * * * * * * * * * * * * * * * * * * * * * * * * * //

dimensions      [0 2 -2 0 0 0 0];

internalField   nonuniform List<scalar> 
180000
(
0.000901396
0.000840385
0.000878805
0.000748508
0.000817519
0.00088688
0.0008261
0.000864237
0.000735264
0.000803128
0.000886131
0.000825385
0.000863487
0.000734638
0.000802421
0.000881946
0.000821359
0.000859285
0.000731086
0.000798477
0.000881462
0.000820899
0.000858798
0.000730683
0.000798019
0.000879608
0.000819128
0.000856931
0.000729127
0.00079627
0.000879351
0.000818883
0.000856671
0.000728911
0.000796025
0.000878531
0.000818101
0.000855844
0.000728224
0.000795249
0.000878424
0.000818
0.000855736
0.000728135
0.000795147
0.000878191
0.000817778
0.000855501
0.000727939
0.000794926
0.000878191
0.000817778
0.000855501
0.000727939
0.000794926
0.000878424
0.000818
0.000855736
0.000728135
0.000795147
0.000878531
0.000818101
0.000855844
0.000728224
0.000795249
0.000879351
0.000818883
0.000856671
0.000728911
0.000796025
0.000879608
0.000819128
0.000856931
0.000729127
0.00079627
0.000881462
0.000820899
0.000858798
0.000730683
0.000798019
0.000881946
0.000821359
0.000859285
0.000731086
0.000798477
0.000886131
0.000825385
0.000863487
0.000734638
0.000802421
0.00088688
0.0008261
0.000864237
0.000735264
0.000803128
0.000901396
0.000840385
0.000878805
0.000748508
0.000817519
0.000735093
0.000706874
0.000725579
0.000656547
0.000695787
0.000728771
0.000699757
0.000718894
0.000648772
0.000688281
0.000728438
0.000699395
0.000718544
0.000648398
0.000687906
0.000726534
0.00069731
0.000716533
0.000646242
0.00068577
0.000726314
0.000697073
0.0007163
0.000645998
0.000685523
0.000725463
0.000696149
0.0007154
0.000645048
0.00068457
0.000725345
0.000696022
0.000715274
0.000644917
0.000684437
0.000724967
0.000695613
0.000714874
0.000644497
0.000684013
0.000724919
0.00069556
0.000714822
0.000644443
0.000683957
0.000724811
0.000695443
0.000714708
0.000644323
0.000683837
0.000724811
0.000695443
0.000714708
0.000644323
0.000683837
0.000724919
0.00069556
0.000714822
0.000644443
0.000683957
0.000724967
0.000695613
0.000714874
0.000644497
0.000684013
0.000725345
0.000696022
0.000715274
0.000644917
0.000684437
0.000725463
0.000696149
0.0007154
0.000645048
0.00068457
0.000726314
0.000697073
0.0007163
0.000645998
0.000685523
0.000726534
0.00069731
0.000716533
0.000646242
0.00068577
0.000728438
0.000699395
0.000718544
0.000648398
0.000687906
0.000728771
0.000699757
0.000718894
0.000648772
0.000688281
0.000735093
0.000706874
0.000725579
0.000656547
0.000695787
0.000527657
0.000505229
0.000520546
0.000466571
0.000499588
0.000522573
0.000499783
0.000515282
0.000460918
0.000493912
0.000522306
0.000499506
0.000515006
0.000460645
0.000493627
0.000520745
0.000497875
0.00051339
0.000459035
0.00049197
0.000520568
0.000497691
0.000513205
0.000458854
0.00049178
0.000519872
0.00049697
0.000512482
0.000458145
0.000491041
0.000519776
0.000496871
0.000512383
0.000458049
0.000490938
0.000519467
0.000496552
0.000512062
0.000457735
0.00049061
0.000519428
0.000496511
0.00051202
0.000457694
0.000490567
0.00051934
0.00049642
0.000511929
0.000457605
0.000490474
0.00051934
0.00049642
0.000511929
0.000457605
0.000490474
0.000519428
0.000496511
0.00051202
0.000457694
0.000490567
0.000519467
0.000496552
0.000512062
0.000457735
0.00049061
0.000519776
0.000496871
0.000512383
0.000458049
0.000490938
0.000519872
0.00049697
0.000512482
0.000458145
0.000491041
0.000520568
0.000497691
0.000513205
0.000458854
0.00049178
0.000520745
0.000497875
0.00051339
0.000459035
0.00049197
0.000522306
0.000499506
0.000515006
0.000460645
0.000493627
0.000522573
0.000499783
0.000515282
0.000460918
0.000493912
0.000527657
0.000505229
0.000520546
0.000466571
0.000499588
0.000493156
0.000466927
0.00048494
0.000424195
0.000463554
0.000487091
0.000460785
0.000478796
0.000418256
0.000457281
0.000486771
0.000460471
0.000478473
0.000417968
0.000456964
0.000484904
0.00045862
0.000476579
0.000416255
0.000455111
0.000484692
0.000458412
0.000476364
0.000416064
0.000454899
0.000483862
0.000457595
0.000475519
0.000415311
0.000454075
0.000483749
0.000457483
0.000475403
0.000415208
0.000453961
0.000483381
0.000457122
0.000475028
0.000414875
0.000453595
0.000483334
0.000457076
0.00047498
0.000414832
0.000453547
0.000483229
0.000456973
0.000474873
0.000414738
0.000453443
0.000483229
0.000456973
0.000474873
0.000414738
0.000453443
0.000483334
0.000457076
0.00047498
0.000414832
0.000453547
0.000483381
0.000457122
0.000475028
0.000414875
0.000453595
0.000483749
0.000457483
0.000475403
0.000415208
0.000453961
0.000483862
0.000457595
0.000475519
0.000415311
0.000454075
0.000484692
0.000458412
0.000476364
0.000416064
0.000454899
0.000484904
0.00045862
0.000476579
0.000416255
0.000455111
0.000486771
0.000460471
0.000478473
0.000417968
0.000456964
0.000487091
0.000460785
0.000478796
0.000418256
0.000457281
0.000493156
0.000466927
0.00048494
0.000424195
0.000463554
0.000516134
0.000488407
0.000507797
0.000442891
0.000487853
0.000509745
0.000481934
0.000501323
0.000436642
0.000481264
0.000509404
0.000481599
0.000500979
0.000436335
0.000480926
0.000507408
0.000479618
0.000498953
0.000434503
0.000478942
0.000507181
0.000479396
0.000498723
0.000434299
0.000478716
0.000506293
0.000478521
0.000497819
0.000433494
0.000477832
0.000506172
0.000478402
0.000497695
0.000433384
0.00047771
0.000505778
0.000478015
0.000497294
0.000433028
0.000477318
0.000505727
0.000477966
0.000497242
0.000432982
0.000477267
0.000505616
0.000477856
0.000497128
0.000432881
0.000477156
0.000505616
0.000477856
0.000497128
0.000432881
0.000477156
0.000505727
0.000477966
0.000497242
0.000432982
0.000477267
0.000505778
0.000478015
0.000497294
0.000433028
0.000477318
0.000506172
0.000478402
0.000497695
0.000433384
0.00047771
0.000506293
0.000478521
0.000497819
0.000433494
0.000477832
0.000507181
0.000479396
0.000498723
0.000434299
0.000478716
0.000507408
0.000479618
0.000498953
0.000434503
0.000478942
0.000509404
0.000481599
0.000500979
0.000436335
0.000480926
0.000509745
0.000481934
0.000501323
0.000436642
0.000481264
0.000516134
0.000488407
0.000507797
0.000442891
0.000487853
0.0005289
0.000501749
0.000521223
0.000456397
0.000504979
0.000522694
0.000495416
0.00051492
0.000450223
0.000498534
0.00052236
0.000495084
0.000514581
0.000449916
0.000498198
0.00052038
0.000493107
0.000512568
0.000448069
0.000496208
0.000520156
0.000492886
0.00051234
0.000447864
0.000495982
0.000519274
0.000492011
0.00051144
0.000447051
0.000495095
0.000519154
0.000491893
0.000511317
0.000446941
0.000494973
0.000518763
0.000491506
0.000510917
0.000446581
0.000494579
0.000518713
0.000491456
0.000510866
0.000446535
0.000494528
0.000518602
0.000491346
0.000510752
0.000446433
0.000494416
0.000518602
0.000491346
0.000510752
0.000446433
0.000494416
0.000518713
0.000491456
0.000510866
0.000446535
0.000494528
0.000518763
0.000491506
0.000510917
0.000446581
0.000494579
0.000519154
0.000491893
0.000511317
0.000446941
0.000494973
0.000519274
0.000492011
0.00051144
0.000447051
0.000495095
0.000520156
0.000492886
0.00051234
0.000447864
0.000495982
0.00052038
0.000493107
0.000512568
0.000448069
0.000496208
0.00052236
0.000495084
0.000514581
0.000449916
0.000498198
0.000522694
0.000495416
0.00051492
0.000450223
0.000498534
0.0005289
0.000501749
0.000521223
0.000456397
0.000504979
0.0005288
0.000502401
0.000521827
0.00045788
0.000509749
0.000522808
0.000496274
0.000515738
0.000451887
0.000503521
0.000522481
0.00049595
0.000515407
0.000451586
0.000503191
0.000520531
0.000493998
0.000513423
0.000449756
0.000501219
0.000520311
0.000493781
0.000513199
0.000449554
0.000500996
0.000519441
0.000492916
0.00051231
0.000448746
0.000500115
0.000519323
0.0004928
0.000512189
0.000448637
0.000499995
0.000518937
0.000492417
0.000511795
0.00044828
0.000499604
0.000518888
0.000492369
0.000511744
0.000448235
0.000499553
0.000518778
0.00049226
0.000511632
0.000448133
0.000499442
0.000518778
0.00049226
0.000511632
0.000448133
0.000499442
0.000518888
0.000492369
0.000511744
0.000448235
0.000499553
0.000518937
0.000492417
0.000511795
0.00044828
0.000499604
0.000519323
0.0004928
0.000512189
0.000448637
0.000499995
0.000519441
0.000492916
0.00051231
0.000448746
0.000500115
0.000520311
0.000493781
0.000513199
0.000449554
0.000500996
0.000520531
0.000493998
0.000513423
0.000449756
0.000501219
0.000522481
0.00049595
0.000515407
0.000451586
0.000503191
0.000522808
0.000496274
0.000515738
0.000451887
0.000503521
0.0005288
0.000502401
0.000521827
0.00045788
0.000509749
0.000526144
0.000500163
0.000519732
0.000456209
0.000511414
0.00052028
0.000494175
0.000513779
0.000450359
0.000505337
0.000519957
0.000493856
0.000513452
0.000450062
0.00050501
0.000518013
0.000491913
0.000511475
0.00044824
0.000503041
0.000517795
0.000491697
0.000511253
0.000448039
0.00050282
0.000516926
0.000490835
0.000510367
0.000447234
0.000501939
0.000516809
0.000490719
0.000510247
0.000447126
0.000501819
0.000516424
0.000490338
0.000509853
0.000446769
0.000501428
0.000516375
0.00049029
0.000509803
0.000446724
0.000501378
0.000516266
0.000490181
0.000509691
0.000446623
0.000501266
0.000516266
0.000490181
0.000509691
0.000446623
0.000501266
0.000516375
0.00049029
0.000509803
0.000446724
0.000501378
0.000516424
0.000490338
0.000509853
0.000446769
0.000501428
0.000516809
0.000490719
0.000510247
0.000447126
0.000501819
0.000516926
0.000490835
0.000510367
0.000447234
0.000501939
0.000517795
0.000491697
0.000511253
0.000448039
0.00050282
0.000518013
0.000491913
0.000511475
0.00044824
0.000503041
0.000519957
0.000493856
0.000513452
0.000450062
0.00050501
0.00052028
0.000494175
0.000513779
0.000450359
0.000505337
0.000526144
0.000500163
0.000519732
0.000456209
0.000511414
0.000524876
0.000499166
0.00051896
0.00045563
0.000513816
0.000519104
0.000493282
0.000513106
0.000449889
0.000507849
0.000518784
0.000492965
0.000512782
0.000449595
0.000507524
0.000516837
0.000491022
0.000510804
0.000447772
0.000505549
0.00051662
0.000490807
0.000510582
0.000447572
0.000505328
0.000515749
0.000489944
0.000509695
0.000446766
0.000504444
0.000515632
0.000489828
0.000509575
0.000446658
0.000504324
0.000515245
0.000489446
0.00050918
0.000446301
0.000503931
0.000515197
0.000489398
0.00050913
0.000446256
0.00050388
0.000515087
0.000489289
0.000509018
0.000446154
0.000503768
0.000515087
0.000489289
0.000509018
0.000446154
0.000503768
0.000515197
0.000489398
0.00050913
0.000446256
0.00050388
0.000515245
0.000489446
0.00050918
0.000446301
0.000503931
0.000515632
0.000489828
0.000509575
0.000446658
0.000504324
0.000515749
0.000489944
0.000509695
0.000446766
0.000504444
0.00051662
0.000490807
0.000510582
0.000447572
0.000505328
0.000516837
0.000491022
0.000510804
0.000447772
0.000505549
0.000518784
0.000492965
0.000512782
0.000449595
0.000507524
0.000519104
0.000493282
0.000513106
0.000449889
0.000507849
0.000524876
0.000499166
0.00051896
0.00045563
0.000513816
0.000524545
0.00049911
0.000519115
0.000456046
0.000516507
0.000518869
0.000493329
0.000513363
0.000450406
0.000510636
0.000518551
0.000493015
0.000513042
0.000450114
0.000510313
0.000516604
0.000491071
0.000511063
0.00044829
0.000508333
0.000516387
0.000490857
0.000510842
0.000448091
0.000508111
0.000515514
0.000489993
0.000509953
0.000447283
0.000507224
0.000515397
0.000489878
0.000509833
0.000447175
0.000507104
0.00051501
0.000489495
0.000509438
0.000446817
0.000506709
0.000514962
0.000489447
0.000509388
0.000446772
0.000506659
0.000514851
0.000489338
0.000509276
0.00044667
0.000506546
0.000514851
0.000489338
0.000509276
0.00044667
0.000506546
0.000514962
0.000489447
0.000509388
0.000446772
0.000506659
0.00051501
0.000489495
0.000509438
0.000446817
0.000506709
0.000515397
0.000489878
0.000509833
0.000447175
0.000507104
0.000515514
0.000489993
0.000509953
0.000447283
0.000507224
0.000516387
0.000490857
0.000510842
0.000448091
0.000508111
0.000516604
0.000491071
0.000511063
0.00044829
0.000508333
0.000518551
0.000493015
0.000513042
0.000450114
0.000510313
0.000518869
0.000493329
0.000513363
0.000450406
0.000510636
0.000524545
0.00049911
0.000519115
0.000456046
0.000516507
0.00052431
0.000499168
0.00051936
0.000456662
0.000518343
0.000518734
0.000493493
0.000513713
0.000451125
0.000512557
0.00051842
0.000493182
0.000513395
0.000450836
0.000512235
0.000516473
0.000491241
0.000511419
0.000449011
0.00051025
0.000516258
0.000491028
0.000511199
0.000448813
0.000510028
0.000515384
0.000490163
0.000510309
0.000448003
0.000509137
0.000515268
0.000490048
0.00051019
0.000447896
0.000509017
0.00051488
0.000489665
0.000509794
0.000447537
0.00050862
0.000514832
0.000489617
0.000509744
0.000447492
0.00050857
0.000514721
0.000489508
0.000509632
0.00044739
0.000508457
0.000514721
0.000489508
0.000509632
0.00044739
0.000508457
0.000514832
0.000489617
0.000509744
0.000447492
0.00050857
0.00051488
0.000489665
0.000509794
0.000447537
0.00050862
0.000515268
0.000490048
0.00051019
0.000447896
0.000509017
0.000515384
0.000490163
0.000510309
0.000448003
0.000509137
0.000516258
0.000491028
0.000511199
0.000448813
0.000510028
0.000516473
0.000491241
0.000511419
0.000449011
0.00051025
0.00051842
0.000493182
0.000513395
0.000450836
0.000512235
0.000518734
0.000493493
0.000513713
0.000451125
0.000512557
0.00052431
0.000499168
0.00051936
0.000456662
0.000518343
0.00052396
0.000499108
0.000519474
0.000457176
0.000517114
0.000518485
0.000493539
0.000513932
0.000451741
0.000511427
0.000518173
0.000493231
0.000513617
0.000451454
0.000511109
0.000516229
0.000491293
0.000511644
0.00044963
0.000509127
0.000516015
0.000491081
0.000511425
0.000449432
0.000508907
0.000515141
0.000490216
0.000510535
0.000448622
0.000508016
0.000515025
0.000490101
0.000510416
0.000448514
0.000507896
0.000514637
0.000489718
0.00051002
0.000448155
0.000507499
0.000514588
0.00048967
0.000509971
0.00044811
0.000507449
0.000514478
0.000489561
0.000509858
0.000448008
0.000507336
0.000514478
0.000489561
0.000509858
0.000448008
0.000507336
0.000514588
0.00048967
0.000509971
0.00044811
0.000507449
0.000514637
0.000489718
0.00051002
0.000448155
0.000507499
0.000515025
0.000490101
0.000510416
0.000448514
0.000507896
0.000515141
0.000490216
0.000510535
0.000448622
0.000508016
0.000516015
0.000491081
0.000511425
0.000449432
0.000508907
0.000516229
0.000491293
0.000511644
0.00044963
0.000509127
0.000518173
0.000493231
0.000513617
0.000451454
0.000511109
0.000518485
0.000493539
0.000513932
0.000451741
0.000511427
0.00052396
0.000499108
0.000519474
0.000457176
0.000517114
0.000523572
0.000498996
0.00051953
0.00045756
0.000515014
0.000518194
0.00049353
0.00051409
0.000452225
0.00050943
0.000517885
0.000493225
0.000513778
0.00045194
0.000509115
0.000515943
0.00049129
0.000511808
0.000450118
0.000507139
0.00051573
0.000491079
0.00051159
0.000449921
0.00050692
0.000514855
0.000490214
0.0005107
0.00044911
0.00050603
0.00051474
0.0004901
0.000510581
0.000449003
0.000505911
0.000514351
0.000489716
0.000510185
0.000448643
0.000505514
0.000514303
0.000489669
0.000510136
0.000448598
0.000505464
0.000514193
0.000489559
0.000510023
0.000448495
0.000505351
0.000514193
0.000489559
0.000510023
0.000448495
0.000505351
0.000514303
0.000489669
0.000510136
0.000448598
0.000505464
0.000514351
0.000489716
0.000510185
0.000448643
0.000505514
0.00051474
0.0004901
0.000510581
0.000449003
0.000505911
0.000514855
0.000490214
0.0005107
0.00044911
0.00050603
0.00051573
0.000491079
0.00051159
0.000449921
0.00050692
0.000515943
0.00049129
0.000511808
0.000450118
0.000507139
0.000517885
0.000493225
0.000513778
0.00045194
0.000509115
0.000518194
0.00049353
0.00051409
0.000452225
0.00050943
0.000523572
0.000498996
0.00051953
0.00045756
0.000515014
0.000523207
0.000498896
0.000519592
0.000457861
0.000513173
0.000517923
0.000493529
0.000514251
0.000452624
0.000507689
0.000517617
0.000493227
0.000513941
0.000452342
0.000507377
0.000515678
0.000491296
0.000511975
0.000450522
0.000505408
0.000515466
0.000491086
0.000511758
0.000450326
0.00050519
0.000514591
0.00049022
0.000510867
0.000449514
0.000504301
0.000514476
0.000490107
0.00051075
0.000449407
0.000504182
0.000514087
0.000489723
0.000510353
0.000449047
0.000503786
0.000514039
0.000489676
0.000510304
0.000449002
0.000503736
0.000513928
0.000489567
0.000510191
0.000448899
0.000503623
0.000513928
0.000489567
0.000510191
0.000448899
0.000503623
0.000514039
0.000489676
0.000510304
0.000449002
0.000503736
0.000514087
0.000489723
0.000510353
0.000449047
0.000503786
0.000514476
0.000490107
0.00051075
0.000449407
0.000504182
0.000514591
0.00049022
0.000510867
0.000449514
0.000504301
0.000515466
0.000491086
0.000511758
0.000450326
0.00050519
0.000515678
0.000491296
0.000511975
0.000450522
0.000505408
0.000517617
0.000493227
0.000513941
0.000452342
0.000507377
0.000517923
0.000493529
0.000514251
0.000452624
0.000507689
0.000523207
0.000498896
0.000519592
0.000457861
0.000513173
0.000522873
0.000498817
0.00051967
0.000458102
0.000511596
0.000517682
0.000493548
0.000514426
0.000452962
0.000506208
0.000517378
0.000493248
0.000514119
0.000452682
0.000505899
0.000515443
0.000491321
0.000512156
0.000450865
0.000503936
0.000515231
0.000491112
0.00051194
0.000450669
0.000503719
0.000514356
0.000490247
0.00051105
0.000449857
0.000502831
0.000514241
0.000490134
0.000510932
0.00044975
0.000502713
0.000513852
0.000489749
0.000510536
0.000449389
0.000502316
0.000513804
0.000489702
0.000510487
0.000449345
0.000502267
0.000513693
0.000489593
0.000510373
0.000449242
0.000502154
0.000513693
0.000489593
0.000510373
0.000449242
0.000502154
0.000513804
0.000489702
0.000510487
0.000449345
0.000502267
0.000513852
0.000489749
0.000510536
0.000449389
0.000502316
0.000514241
0.000490134
0.000510932
0.00044975
0.000502713
0.000514356
0.000490247
0.00051105
0.000449857
0.000502831
0.000515231
0.000491112
0.00051194
0.000450669
0.000503719
0.000515443
0.000491321
0.000512156
0.000450865
0.000503936
0.000517378
0.000493248
0.000514119
0.000452682
0.000505899
0.000517682
0.000493548
0.000514426
0.000452962
0.000506208
0.000522873
0.000498817
0.00051967
0.000458102
0.000511596
0.000522562
0.000498752
0.000519757
0.000458283
0.000510081
0.00051746
0.000493578
0.000514608
0.000453238
0.000504787
0.000517159
0.000493281
0.000514304
0.000452961
0.000504482
0.000515227
0.000491358
0.000512345
0.000451147
0.000502525
0.000515016
0.00049115
0.000512131
0.000450952
0.00050231
0.000514141
0.000490285
0.00051124
0.000450139
0.000501422
0.000514027
0.000490172
0.000511123
0.000450033
0.000501304
0.000513637
0.000489788
0.000510726
0.000449672
0.000500908
0.00051359
0.000489741
0.000510677
0.000449628
0.000500859
0.000513479
0.000489632
0.000510564
0.000449525
0.000500746
0.000513479
0.000489632
0.000510564
0.000449525
0.000500746
0.00051359
0.000489741
0.000510677
0.000449628
0.000500859
0.000513637
0.000489788
0.000510726
0.000449672
0.000500908
0.000514027
0.000490172
0.000511123
0.000450033
0.000501304
0.000514141
0.000490285
0.00051124
0.000450139
0.000501422
0.000515016
0.00049115
0.000512131
0.000450952
0.00050231
0.000515227
0.000491358
0.000512345
0.000451147
0.000502525
0.000517159
0.000493281
0.000514304
0.000452961
0.000504482
0.00051746
0.000493578
0.000514608
0.000453238
0.000504787
0.000522562
0.000498752
0.000519757
0.000458283
0.000510081
0.000522268
0.000498696
0.000519851
0.000458402
0.000508561
0.000517255
0.000493616
0.000514795
0.00045345
0.000503359
0.000516956
0.000493322
0.000514494
0.000453175
0.000503056
0.000515028
0.000491402
0.000512539
0.000451365
0.000501106
0.000514818
0.000491196
0.000512326
0.000451171
0.000500892
0.000513943
0.00049033
0.000511435
0.000450358
0.000500004
0.000513829
0.000490218
0.000511319
0.000450253
0.000499887
0.000513439
0.000489834
0.000510921
0.000449891
0.000499491
0.000513392
0.000489787
0.000510873
0.000449847
0.000499442
0.000513281
0.000489678
0.00051076
0.000449744
0.000499329
0.000513281
0.000489678
0.00051076
0.000449744
0.000499329
0.000513392
0.000489787
0.000510873
0.000449847
0.000499442
0.000513439
0.000489834
0.000510921
0.000449891
0.000499491
0.000513829
0.000490218
0.000511319
0.000450253
0.000499887
0.000513943
0.00049033
0.000511435
0.000450358
0.000500004
0.000514818
0.000491196
0.000512326
0.000451171
0.000500892
0.000515028
0.000491402
0.000512539
0.000451365
0.000501106
0.000516956
0.000493322
0.000514494
0.000453175
0.000503056
0.000517255
0.000493616
0.000514795
0.00045345
0.000503359
0.000522268
0.000498696
0.000519851
0.000458402
0.000508561
0.000521991
0.000498649
0.000519953
0.000458458
0.000507046
0.000517065
0.00049366
0.000514988
0.000453598
0.000501933
0.000516768
0.000493369
0.000514689
0.000453326
0.000501633
0.000514844
0.000491454
0.000512739
0.00045152
0.00049969
0.000514636
0.000491249
0.000512527
0.000451327
0.000499477
0.00051376
0.000490383
0.000511636
0.000450514
0.000498591
0.000513647
0.000490272
0.00051152
0.000450409
0.000498474
0.000513257
0.000489887
0.000511123
0.000450047
0.000498078
0.000513209
0.000489841
0.000511074
0.000450004
0.000498029
0.000513098
0.000489731
0.000510961
0.0004499
0.000497917
0.000513098
0.000489731
0.000510961
0.0004499
0.000497917
0.000513209
0.000489841
0.000511074
0.000450004
0.000498029
0.000513257
0.000489887
0.000511123
0.000450047
0.000498078
0.000513647
0.000490272
0.00051152
0.000450409
0.000498474
0.00051376
0.000490383
0.000511636
0.000450514
0.000498591
0.000514635
0.000491249
0.000512527
0.000451327
0.000499477
0.000514844
0.000491454
0.000512739
0.00045152
0.00049969
0.000516768
0.000493369
0.000514689
0.000453326
0.000501633
0.000517065
0.00049366
0.000514988
0.000453598
0.000501933
0.000521991
0.000498649
0.000519953
0.000458458
0.000507046
0.000521731
0.000498613
0.000520064
0.000458452
0.00050555
0.00051689
0.000493713
0.000515188
0.000453683
0.000500523
0.000516596
0.000493424
0.000514892
0.000453413
0.000500226
0.000514677
0.000491514
0.000512947
0.000451612
0.00049829
0.000514469
0.000491309
0.000512735
0.00045142
0.000498078
0.000513593
0.000490444
0.000511845
0.000450608
0.000497193
0.00051348
0.000490333
0.000511729
0.000450503
0.000497077
0.00051309
0.000489949
0.000511332
0.000450142
0.000496682
0.000513043
0.000489902
0.000511283
0.000450098
0.000496633
0.000512932
0.000489793
0.00051117
0.000449995
0.00049652
0.000512932
0.000489793
0.00051117
0.000449995
0.00049652
0.000513043
0.000489902
0.000511283
0.000450098
0.000496633
0.00051309
0.000489949
0.000511332
0.000450142
0.000496682
0.00051348
0.000490333
0.000511729
0.000450503
0.000497077
0.000513593
0.000490444
0.000511845
0.000450608
0.000497193
0.000514469
0.000491309
0.000512735
0.00045142
0.000498078
0.000514677
0.000491514
0.000512947
0.000451612
0.00049829
0.000516596
0.000493424
0.000514892
0.000453413
0.000500226
0.00051689
0.000493713
0.000515188
0.000453683
0.000500523
0.000521731
0.000498613
0.000520064
0.000458452
0.00050555
0.00052149
0.000498587
0.000520186
0.000458386
0.000504006
0.000516731
0.000493773
0.000515397
0.000453705
0.000499065
0.000516439
0.000493487
0.000515103
0.000453438
0.000498771
0.000514525
0.000491582
0.000513164
0.000451643
0.000496843
0.000514318
0.000491379
0.000512953
0.000451452
0.000496632
0.000513442
0.000490514
0.000512063
0.00045064
0.000495748
0.00051333
0.000490403
0.000511948
0.000450536
0.000495633
0.000512939
0.000490019
0.00051155
0.000450174
0.000495238
0.000512893
0.000489972
0.000511502
0.000450131
0.000495189
0.000512781
0.000489863
0.000511388
0.000450028
0.000495076
0.000512781
0.000489863
0.000511388
0.000450028
0.000495076
0.000512893
0.000489972
0.000511502
0.000450131
0.000495189
0.000512939
0.000490019
0.00051155
0.000450174
0.000495238
0.00051333
0.000490403
0.000511948
0.000450536
0.000495633
0.000513442
0.000490514
0.000512063
0.00045064
0.000495748
0.000514318
0.000491379
0.000512953
0.000451452
0.000496632
0.000514525
0.000491582
0.000513164
0.000451643
0.000496843
0.000516439
0.000493487
0.000515103
0.000453438
0.000498771
0.000516731
0.000493773
0.000515397
0.000453705
0.000499065
0.00052149
0.000498587
0.000520186
0.000458386
0.000504006
-1.63201e-05
1.58096e-05
2.85861e-06
7.0634e-07
2.53935e-07
1.81366e-07
1.65497e-07
1.62545e-07
1.61822e-07
1.61667e-07
1.61616e-07
1.61593e-07
1.61496e-07
1.61386e-07
1.60519e-07
1.59851e-07
1.53415e-07
1.50644e-07
1.11916e-07
1.07812e-07
-1.63913e-05
1.57712e-05
2.87458e-06
7.11758e-07
2.55283e-07
1.81697e-07
1.65559e-07
1.62546e-07
1.61807e-07
1.61647e-07
1.61595e-07
1.61571e-07
1.61471e-07
1.61359e-07
1.60478e-07
1.59803e-07
1.53295e-07
1.50518e-07
1.11616e-07
1.076e-07
-1.63857e-05
1.5762e-05
2.87179e-06
7.11389e-07
2.55214e-07
1.81689e-07
1.65557e-07
1.62546e-07
1.61806e-07
1.61646e-07
1.61595e-07
1.61571e-07
1.61471e-07
1.61359e-07
1.60477e-07
1.59802e-07
1.53293e-07
1.50516e-07
1.11613e-07
1.07598e-07
-1.63578e-05
1.57112e-05
2.85634e-06
7.09345e-07
2.54834e-07
1.81643e-07
1.65548e-07
1.62544e-07
1.61805e-07
1.61645e-07
1.61593e-07
1.6157e-07
1.61469e-07
1.61357e-07
1.60475e-07
1.59799e-07
1.53286e-07
1.50509e-07
1.11601e-07
1.07592e-07
-1.63534e-05
1.57044e-05
2.85398e-06
7.08976e-07
2.54752e-07
1.81629e-07
1.65545e-07
1.62544e-07
1.61805e-07
1.61645e-07
1.61593e-07
1.6157e-07
1.61469e-07
1.61357e-07
1.60475e-07
1.59799e-07
1.53286e-07
1.50509e-07
1.11601e-07
1.07591e-07
-1.63382e-05
1.56807e-05
2.84598e-06
7.07779e-07
2.54496e-07
1.81588e-07
1.65535e-07
1.62542e-07
1.61804e-07
1.61645e-07
1.61593e-07
1.6157e-07
1.61469e-07
1.61357e-07
1.60474e-07
1.59798e-07
1.53286e-07
1.50509e-07
1.11601e-07
1.07591e-07
-1.63358e-05
1.56771e-05
2.84473e-06
7.0758e-07
2.5445e-07
1.8158e-07
1.65533e-07
1.62541e-07
1.61804e-07
1.61645e-07
1.61593e-07
1.6157e-07
1.61469e-07
1.61357e-07
1.60474e-07
1.59798e-07
1.53286e-07
1.50509e-07
1.11601e-07
1.07591e-07
-1.63291e-05
1.56667e-05
2.84122e-06
7.07052e-07
2.54336e-07
1.81561e-07
1.65529e-07
1.62541e-07
1.61804e-07
1.61645e-07
1.61593e-07
1.6157e-07
1.61469e-07
1.61357e-07
1.60474e-07
1.59798e-07
1.53286e-07
1.50509e-07
1.11601e-07
1.07591e-07
-1.63281e-05
1.56652e-05
2.84071e-06
7.06971e-07
2.54317e-07
1.81558e-07
1.65528e-07
1.6254e-07
1.61804e-07
1.61645e-07
1.61593e-07
1.6157e-07
1.61469e-07
1.61357e-07
1.60474e-07
1.59798e-07
1.53286e-07
1.50509e-07
1.11601e-07
1.07591e-07
-1.63262e-05
1.56623e-05
2.83972e-06
7.06823e-07
2.54285e-07
1.81553e-07
1.65527e-07
1.6254e-07
1.61804e-07
1.61645e-07
1.61593e-07
1.6157e-07
1.61469e-07
1.61357e-07
1.60474e-07
1.59798e-07
1.53286e-07
1.50509e-07
1.11601e-07
1.07591e-07
-1.63262e-05
1.56623e-05
2.83972e-06
7.06823e-07
2.54285e-07
1.81553e-07
1.65527e-07
1.6254e-07
1.61804e-07
1.61645e-07
1.61593e-07
1.6157e-07
1.61469e-07
1.61357e-07
1.60474e-07
1.59798e-07
1.53286e-07
1.50509e-07
1.11601e-07
1.07591e-07
-1.63281e-05
1.56652e-05
2.84071e-06
7.06971e-07
2.54317e-07
1.81558e-07
1.65528e-07
1.6254e-07
1.61804e-07
1.61645e-07
1.61593e-07
1.6157e-07
1.61469e-07
1.61357e-07
1.60474e-07
1.59798e-07
1.53286e-07
1.50509e-07
1.11601e-07
1.07591e-07
-1.63291e-05
1.56667e-05
2.84122e-06
7.07052e-07
2.54336e-07
1.81561e-07
1.65529e-07
1.62541e-07
1.61804e-07
1.61645e-07
1.61593e-07
1.6157e-07
1.61469e-07
1.61357e-07
1.60474e-07
1.59798e-07
1.53286e-07
1.50509e-07
1.11601e-07
1.07591e-07
-1.63358e-05
1.56771e-05
2.84473e-06
7.0758e-07
2.5445e-07
1.8158e-07
1.65533e-07
1.62541e-07
1.61804e-07
1.61645e-07
1.61593e-07
1.6157e-07
1.61469e-07
1.61357e-07
1.60474e-07
1.59798e-07
1.53286e-07
1.50509e-07
1.11601e-07
1.07591e-07
-1.63382e-05
1.56807e-05
2.84598e-06
7.07779e-07
2.54496e-07
1.81588e-07
1.65535e-07
1.62542e-07
1.61804e-07
1.61645e-07
1.61593e-07
1.6157e-07
1.61469e-07
1.61357e-07
1.60474e-07
1.59798e-07
1.53286e-07
1.50509e-07
1.11601e-07
1.07591e-07
-1.63534e-05
1.57044e-05
2.85398e-06
7.08976e-07
2.54752e-07
1.81629e-07
1.65545e-07
1.62544e-07
1.61805e-07
1.61645e-07
1.61593e-07
1.6157e-07
1.61469e-07
1.61357e-07
1.60475e-07
1.59799e-07
1.53286e-07
1.50509e-07
1.11601e-07
1.07591e-07
-1.63578e-05
1.57112e-05
2.85634e-06
7.09345e-07
2.54834e-07
1.81643e-07
1.65548e-07
1.62544e-07
1.61805e-07
1.61645e-07
1.61593e-07
1.6157e-07
1.61469e-07
1.61357e-07
1.60475e-07
1.59799e-07
1.53286e-07
1.50509e-07
1.11601e-07
1.07592e-07
-1.63857e-05
1.5762e-05
2.87179e-06
7.11389e-07
2.55214e-07
1.81689e-07
1.65557e-07
1.62546e-07
1.61806e-07
1.61646e-07
1.61595e-07
1.61571e-07
1.61471e-07
1.61359e-07
1.60477e-07
1.59802e-07
1.53293e-07
1.50516e-07
1.11613e-07
1.07598e-07
-1.63913e-05
1.57712e-05
2.87458e-06
7.11758e-07
2.55283e-07
1.81697e-07
1.65559e-07
1.62546e-07
1.61807e-07
1.61647e-07
1.61595e-07
1.61571e-07
1.61471e-07
1.61359e-07
1.60478e-07
1.59803e-07
1.53295e-07
1.50518e-07
1.11616e-07
1.076e-07
-1.63201e-05
1.58096e-05
2.85861e-06
7.0634e-07
2.53935e-07
1.81366e-07
1.65497e-07
1.62545e-07
1.61822e-07
1.61667e-07
1.61616e-07
1.61593e-07
1.61496e-07
1.61386e-07
1.60519e-07
1.59851e-07
1.53415e-07
1.50644e-07
1.11916e-07
1.07812e-07
-1.59355e-05
1.59804e-05
2.88443e-06
7.11857e-07
2.54916e-07
1.81591e-07
1.65526e-07
1.62637e-07
1.61914e-07
1.61755e-07
1.61704e-07
1.61681e-07
1.61582e-07
1.6147e-07
1.60564e-07
1.59833e-07
1.53333e-07
1.50537e-07
1.11321e-07
1.07188e-07
-1.60018e-05
1.59419e-05
2.90059e-06
7.17335e-07
2.5628e-07
1.81926e-07
1.65589e-07
1.62637e-07
1.61898e-07
1.61735e-07
1.61683e-07
1.61659e-07
1.61558e-07
1.61444e-07
1.60522e-07
1.59784e-07
1.53212e-07
1.50409e-07
1.11017e-07
1.06972e-07
-1.5996e-05
1.59326e-05
2.89777e-06
7.16962e-07
2.5621e-07
1.81918e-07
1.65588e-07
1.62637e-07
1.61898e-07
1.61735e-07
1.61683e-07
1.61659e-07
1.61557e-07
1.61444e-07
1.60521e-07
1.59783e-07
1.5321e-07
1.50407e-07
1.11014e-07
1.0697e-07
-1.59672e-05
1.58813e-05
2.88217e-06
7.14898e-07