/*--------------------------------*- C++ -*----------------------------------*\
  =========                 |
  \\      /  F ield         | OpenFOAM: The Open Source CFD Toolbox
   \\    /   O peration     | Website:  https://openfoam.org
    \\  /    A nd           | Version:  8
     \\/     M anipulation  |
\*---------------------------------------------------------------------------*/
FoamFile
{
    version     2.0;
    format      ascii;
    class       volScalarField;
    location    "2.7";
    object      p;
}
// * * * * * * * * * * * * * * * * * * * * * * * * * * * * * * * * * * * * * //

dimensions      [0 2 -2 0 0 0 0];

internalField   nonuniform List<scalar> 
180000
(
0.000906755
0.00084541
0.00088425
0.000752844
0.00082257
0.000892239
0.000831127
0.000869683
0.000739609
0.000808177
0.000891518
0.000830438
0.00086896
0.000739005
0.000807495
0.000887383
0.000826462
0.000864809
0.000735499
0.000803598
0.000886934
0.000826034
0.000864356
0.000735124
0.000803172
0.000885138
0.000824319
0.000862548
0.000733617
0.000801477
0.000884906
0.000824098
0.000862313
0.000733423
0.000801255
0.000884126
0.000823355
0.000861526
0.00073277
0.000800517
0.000884032
0.000823265
0.000861431
0.00073269
0.000800427
0.000883813
0.000823056
0.00086121
0.000732507
0.000800219
0.000883813
0.000823056
0.00086121
0.000732507
0.000800219
0.000884032
0.000823265
0.000861431
0.00073269
0.000800427
0.000884126
0.000823355
0.000861526
0.00073277
0.000800517
0.000884906
0.000824098
0.000862313
0.000733423
0.000801255
0.000885138
0.000824319
0.000862548
0.000733617
0.000801477
0.000886934
0.000826034
0.000864356
0.000735124
0.000803172
0.000887383
0.000826462
0.000864809
0.000735499
0.000803598
0.000891518
0.000830438
0.00086896
0.000739005
0.000807495
0.000892239
0.000831127
0.000869683
0.000739609
0.000808177
0.000906755
0.00084541
0.00088425
0.000752844
0.00082257
0.000737358
0.000709322
0.000728011
0.000659062
0.00069837
0.000731119
0.000702281
0.000721411
0.000651346
0.000690937
0.000730803
0.000701935
0.000721077
0.000650989
0.000690578
0.000728946
0.000699897
0.000719115
0.000648875
0.000688488
0.000728745
0.000699678
0.000718901
0.00064865
0.000688261
0.000727931
0.000698793
0.000718039
0.000647737
0.000687346
0.000727826
0.000698679
0.000717927
0.000647619
0.000687226
0.000727471
0.000698294
0.000717551
0.000647223
0.000686827
0.000727429
0.000698248
0.000717506
0.000647175
0.000686778
0.000727329
0.000698139
0.0007174
0.000647063
0.000686665
0.000727329
0.000698139
0.0007174
0.000647063
0.000686665
0.000727429
0.000698248
0.000717506
0.000647175
0.000686778
0.000727471
0.000698294
0.000717551
0.000647223
0.000686827
0.000727826
0.000698679
0.000717927
0.000647619
0.000687226
0.000727931
0.000698793
0.000718039
0.000647737
0.000687346
0.000728745
0.000699678
0.000718901
0.00064865
0.000688261
0.000728946
0.000699897
0.000719115
0.000648875
0.000688488
0.000730803
0.000701935
0.000721077
0.000650989
0.000690578
0.000731119
0.000702281
0.000721411
0.000651346
0.000690937
0.000737358
0.000709322
0.000728011
0.000659062
0.00069837
0.000529511
0.000507132
0.000522495
0.000468428
0.000501584
0.00052447
0.000501725
0.000517274
0.000462808
0.000495945
0.000524215
0.00050146
0.000517011
0.000462547
0.000495673
0.000522686
0.00049986
0.000515427
0.000460965
0.000494046
0.000522522
0.000499691
0.000515257
0.000460798
0.00049387
0.000521853
0.000498996
0.000514562
0.000460115
0.000493159
0.000521768
0.000498908
0.000514473
0.000460028
0.000493067
0.000521476
0.000498606
0.000514169
0.000459732
0.000492756
0.000521442
0.00049857
0.000514133
0.000459696
0.000492719
0.00052136
0.000498485
0.000514048
0.000459612
0.000492631
0.00052136
0.000498485
0.000514048
0.000459612
0.000492631
0.000521442
0.00049857
0.000514133
0.000459696
0.000492719
0.000521476
0.000498606
0.000514169
0.000459732
0.000492756
0.000521768
0.000498908
0.000514473
0.000460028
0.000493067
0.000521853
0.000498996
0.000514562
0.000460115
0.000493159
0.000522522
0.000499691
0.000515257
0.000460798
0.00049387
0.000522686
0.00049986
0.000515427
0.000460965
0.000494046
0.000524215
0.00050146
0.000517011
0.000462547
0.000495673
0.00052447
0.000501725
0.000517274
0.000462808
0.000495945
0.000529511
0.000507132
0.000522495
0.000468428
0.000501584
0.000495418
0.000469117
0.000487265
0.000426184
0.000465818
0.000489371
0.000462992
0.000481139
0.000420262
0.000459561
0.000489064
0.000462691
0.000480829
0.000419985
0.000459256
0.000487225
0.000460867
0.000478964
0.000418297
0.000457431
0.000487029
0.000460675
0.000478764
0.000418121
0.000457235
0.000486227
0.000459885
0.000477948
0.000417393
0.000456438
0.000486125
0.000459785
0.000477844
0.0004173
0.000456335
0.000485776
0.000459442
0.000477488
0.000416984
0.000455987
0.000485735
0.000459401
0.000477446
0.000416946
0.000455945
0.000485637
0.000459305
0.000477346
0.000416857
0.000455847
0.000485637
0.000459305
0.000477346
0.000416857
0.000455847
0.000485735
0.000459401
0.000477446
0.000416946
0.000455945
0.000485776
0.000459442
0.000477488
0.000416984
0.000455987
0.000486125
0.000459785
0.000477844
0.0004173
0.000456335
0.000486227
0.000459885
0.000477948
0.000417393
0.000456438
0.000487029
0.000460675
0.000478764
0.000418121
0.000457235
0.000487225
0.000460867
0.000478964
0.000418297
0.000457431
0.000489064
0.000462691
0.000480829
0.000419985
0.000459256
0.000489371
0.000462992
0.000481139
0.000420262
0.000459561
0.000495418
0.000469117
0.000487265
0.000426184
0.000465818
0.000518541
0.00049074
0.000510271
0.000445009
0.000490272
0.000512172
0.000484285
0.000503818
0.000438777
0.000483701
0.000511845
0.000483963
0.000503488
0.000438482
0.000483376
0.000509879
0.000482012
0.000501493
0.000436678
0.000481422
0.000509669
0.000481807
0.000501279
0.000436489
0.000481212
0.000508811
0.000480961
0.000500406
0.00043571
0.000480358
0.000508702
0.000480854
0.000500294
0.000435612
0.000480248
0.000508328
0.000480487
0.000499914
0.000435273
0.000479876
0.000508284
0.000480443
0.000499868
0.000435233
0.000479831
0.000508179
0.00048034
0.000499761
0.000435138
0.000479726
0.000508179
0.00048034
0.000499761
0.000435138
0.000479726
0.000508284
0.000480443
0.000499868
0.000435233
0.000479831
0.000508328
0.000480487
0.000499914
0.000435273
0.000479876
0.000508702
0.000480854
0.000500294
0.000435612
0.000480248
0.000508811
0.000480961
0.000500406
0.00043571
0.000480358
0.000509669
0.000481807
0.000501279
0.000436489
0.000481212
0.000509879
0.000482012
0.000501493
0.000436678
0.000481422
0.000511845
0.000483963
0.000503488
0.000438482
0.000483376
0.000512172
0.000484285
0.000503818
0.000438777
0.000483701
0.000518541
0.00049074
0.000510271
0.000445009
0.000490272
0.000531257
0.000504052
0.000523654
0.000458513
0.000507386
0.000525076
0.000497741
0.000517376
0.000452359
0.000500964
0.000524755
0.000497424
0.000517051
0.000452065
0.000500642
0.000522807
0.000495477
0.00051507
0.000450246
0.000498683
0.0005226
0.000495273
0.000514858
0.000450056
0.000498473
0.000521748
0.000494427
0.000513989
0.00044927
0.000497616
0.000521641
0.000494321
0.000513879
0.000449171
0.000497506
0.00052127
0.000493954
0.0005135
0.000448829
0.000497133
0.000521226
0.00049391
0.000513455
0.000448789
0.000497088
0.000521122
0.000493807
0.000513348
0.000448693
0.000496982
0.000521122
0.000493807
0.000513348
0.000448693
0.000496982
0.000521226
0.00049391
0.000513455
0.000448789
0.000497088
0.00052127
0.000493954
0.0005135
0.000448829
0.000497133
0.000521641
0.000494321
0.000513879
0.000449171
0.000497506
0.000521748
0.000494427
0.000513989
0.00044927
0.000497616
0.0005226
0.000495273
0.000514858
0.000450056
0.000498473
0.000522807
0.000495477
0.00051507
0.000450246
0.000498683
0.000524755
0.000497424
0.000517051
0.000452065
0.000500642
0.000525076
0.000497741
0.000517376
0.000452359
0.000500964
0.000531257
0.000504052
0.000523654
0.000458513
0.000507386
0.000531096
0.000504651
0.000524197
0.000459958
0.000512117
0.000525129
0.000498547
0.000518134
0.000453986
0.000505914
0.000524817
0.000498237
0.000517817
0.000453697
0.000505597
0.000522897
0.000496315
0.000515864
0.000451895
0.000503657
0.000522695
0.000496115
0.000515657
0.000451708
0.00050345
0.000521854
0.000495279
0.0005148
0.000450928
0.0005026
0.000521749
0.000495174
0.000514691
0.00045083
0.000502491
0.000521383
0.000494811
0.000514317
0.00045049
0.00050212
0.000521339
0.000494769
0.000514272
0.00045045
0.000502076
0.000521237
0.000494667
0.000514167
0.000450355
0.000501971
0.000521237
0.000494667
0.000514167
0.000450355
0.000501971
0.000521339
0.000494769
0.000514272
0.00045045
0.000502076
0.000521383
0.000494811
0.000514317
0.00045049
0.00050212
0.000521749
0.000495174
0.000514691
0.00045083
0.000502491
0.000521854
0.000495279
0.0005148
0.000450928
0.0005026
0.000522695
0.000496115
0.000515657
0.000451708
0.00050345
0.000522897
0.000496315
0.000515864
0.000451895
0.000503657
0.000524817
0.000498237
0.000517817
0.000453697
0.000505597
0.000525129
0.000498547
0.000518134
0.000453986
0.000505914
0.000531096
0.000504651
0.000524197
0.000459958
0.000512117
0.000528412
0.000502383
0.000522072
0.000458261
0.000513764
0.000522572
0.000496417
0.000516143
0.000452431
0.000507712
0.000522263
0.000496112
0.000515831
0.000452147
0.000507399
0.00052035
0.000494199
0.000513886
0.000450352
0.000505461
0.000520149
0.000494
0.00051368
0.000450166
0.000505256
0.00051931
0.000493167
0.000512825
0.000449389
0.000504406
0.000519205
0.000493063
0.000512717
0.000449291
0.000504298
0.00051884
0.000492701
0.000512343
0.000448953
0.000503927
0.000518797
0.000492658
0.000512299
0.000448913
0.000503882
0.000518694
0.000492557
0.000512194
0.000448818
0.000503778
0.000518694
0.000492557
0.000512194
0.000448818
0.000503778
0.000518797
0.000492658
0.000512299
0.000448913
0.000503882
0.00051884
0.000492701
0.000512343
0.000448953
0.000503927
0.000519205
0.000493063
0.000512717
0.000449291
0.000504298
0.00051931
0.000493167
0.000512825
0.000449389
0.000504406
0.000520149
0.000494
0.00051368
0.000450166
0.000505256
0.00052035
0.000494199
0.000513886
0.000450352
0.000505461
0.000522263
0.000496112
0.000515831
0.000452147
0.000507399
0.000522572
0.000496417
0.000516143
0.000452431
0.000507712
0.000528412
0.000502383
0.000522072
0.000458261
0.000513764
0.000527127
0.000501367
0.000521281
0.000457667
0.000516158
0.000521379
0.000495505
0.000515452
0.000451945
0.000510216
0.000521073
0.000495203
0.000515143
0.000451664
0.000509905
0.000519157
0.000493289
0.000513196
0.000449868
0.000507961
0.000518957
0.000493091
0.000512991
0.000449683
0.000507756
0.000518115
0.000492257
0.000512134
0.000448904
0.000506902
0.00051801
0.000492153
0.000512026
0.000448807
0.000506794
0.000517644
0.00049179
0.000511652
0.000448468
0.000506421
0.000517601
0.000491748
0.000511608
0.000448429
0.000506377
0.000517498
0.000491646
0.000511502
0.000448333
0.000506272
0.000517498
0.000491646
0.000511502
0.000448333
0.000506272
0.000517601
0.000491748
0.000511608
0.000448429
0.000506377
0.000517644
0.00049179
0.000511652
0.000448468
0.000506421
0.00051801
0.000492153
0.000512026
0.000448807
0.000506794
0.000518115
0.000492257
0.000512134
0.000448904
0.000506902
0.000518957
0.000493091
0.000512991
0.000449683
0.000507756
0.000519157
0.000493289
0.000513196
0.000449868
0.000507961
0.000521073
0.000495203
0.000515143
0.000451664
0.000509905
0.000521379
0.000495505
0.000515452
0.000451945
0.000510216
0.000527127
0.000501367
0.000521281
0.000457667
0.000516158
0.000526778
0.000501293
0.000521418
0.000458069
0.000518839
0.000521125
0.000495534
0.00051569
0.000452448
0.000512993
0.000520822
0.000495233
0.000515383
0.000452169
0.000512684
0.000518905
0.00049332
0.000513436
0.000450373
0.000510735
0.000518705
0.000493123
0.000513232
0.000450188
0.00051053
0.000517862
0.000492287
0.000512373
0.000449407
0.000509673
0.000517757
0.000492184
0.000512265
0.000449311
0.000509565
0.00051739
0.00049182
0.00051189
0.000448971
0.00050919
0.000517347
0.000491778
0.000511846
0.000448931
0.000509146
0.000517244
0.000491676
0.000511741
0.000448835
0.00050904
0.000517244
0.000491676
0.000511741
0.000448835
0.00050904
0.000517347
0.000491778
0.000511846
0.000448931
0.000509146
0.00051739
0.00049182
0.00051189
0.000448971
0.00050919
0.000517757
0.000492184
0.000512265
0.000449311
0.000509565
0.000517862
0.000492287
0.000512373
0.000449407
0.000509673
0.000518705
0.000493123
0.000513232
0.000450188
0.00051053
0.000518905
0.00049332
0.000513436
0.000450373
0.000510735
0.000520822
0.000495233
0.000515383
0.000452169
0.000512684
0.000521125
0.000495534
0.00051569
0.000452448
0.000512993
0.000526778
0.000501293
0.000521418
0.000458069
0.000518839
0.000526522
0.00050133
0.000521641
0.000458671
0.000520663
0.00052097
0.000495677
0.000516018
0.000453152
0.000514901
0.000520669
0.00049538
0.000515714
0.000452876
0.000514594
0.000518754
0.000493469
0.000513769
0.000451079
0.00051264
0.000518555
0.000493272
0.000513566
0.000450895
0.000512435
0.000517711
0.000492436
0.000512707
0.000450113
0.000511574
0.000517606
0.000492333
0.0005126
0.000450016
0.000511466
0.000517239
0.00049197
0.000512224
0.000449676
0.00051109
0.000517196
0.000491927
0.00051218
0.000449636
0.000511046
0.000517092
0.000491825
0.000512075
0.00044954
0.00051094
0.000517092
0.000491825
0.000512075
0.00044954
0.00051094
0.000517196
0.000491927
0.00051218
0.000449636
0.000511046
0.000517239
0.00049197
0.000512224
0.000449676
0.00051109
0.000517606
0.000492333
0.0005126
0.000450016
0.000511466
0.000517711
0.000492436
0.000512707
0.000450113
0.000511574
0.000518555
0.000493272
0.000513566
0.000450895
0.000512435
0.000518754
0.000493469
0.000513769
0.000451079
0.00051264
0.000520669
0.00049538
0.000515714
0.000452876
0.000514594
0.00052097
0.000495677
0.000516018
0.000453152
0.000514901
0.000526522
0.00050133
0.000521641
0.000458671
0.000520663
0.000526151
0.000501249
0.000521733
0.000459169
0.000519412
0.000520698
0.000495701
0.000516215
0.000453752
0.000513749
0.0005204
0.000495407
0.000515913
0.000453478
0.000513445
0.000518488
0.000493499
0.000513972
0.000451682
0.000511494
0.000518289
0.000493304
0.00051377
0.000451499
0.000511291
0.000517445
0.000492468
0.00051291
0.000450716
0.00051043
0.000517341
0.000492365
0.000512803
0.000450619
0.000510322
0.000516973
0.000492001
0.000512428
0.000450278
0.000509945
0.000516931
0.000491959
0.000512384
0.000450238
0.000509901
0.000516827
0.000491857
0.000512278
0.000450142
0.000509795
0.000516827
0.000491857
0.000512278
0.000450142
0.000509795
0.000516931
0.000491959
0.000512384
0.000450238
0.000509901
0.000516973
0.000492001
0.000512428
0.000450278
0.000509945
0.000517341
0.000492365
0.000512803
0.000450619
0.000510322
0.000517445
0.000492468
0.00051291
0.000450716
0.00051043
0.000518289
0.000493304
0.00051377
0.000451499
0.000511291
0.000518488
0.000493499
0.000513972
0.000451682
0.000511494
0.0005204
0.000495407
0.000515913
0.000453478
0.000513445
0.000520698
0.000495701
0.000516215
0.000453752
0.000513749
0.000526151
0.000501249
0.000521733
0.000459169
0.000519412
0.000525741
0.000501116
0.000521766
0.000459537
0.000517286
0.000520386
0.000495671
0.00051635
0.00045422
0.000511726
0.00052009
0.00049538
0.000516052
0.000453948
0.000511425
0.00051818
0.000493475
0.000514113
0.000452154
0.000509481
0.000517983
0.000493281
0.000513912
0.000451972
0.000509278
0.000517138
0.000492445
0.000513052
0.000451187
0.000508418
0.000517035
0.000492342
0.000512946
0.000451091
0.000508311
0.000516666
0.000491978
0.00051257
0.000450749
0.000507934
0.000516624
0.000491936
0.000512526
0.00045071
0.00050789
0.00051652
0.000491834
0.00051242
0.000450614
0.000507784
0.00051652
0.000491834
0.00051242
0.000450614
0.000507784
0.000516624
0.000491936
0.000512526
0.00045071
0.00050789
0.000516666
0.000491978
0.00051257
0.000450749
0.000507934
0.000517035
0.000492342
0.000512946
0.000451091
0.000508311
0.000517138
0.000492445
0.000513052
0.000451187
0.000508418
0.000517983
0.000493281
0.000513912
0.000451972
0.000509278
0.00051818
0.000493475
0.000514113
0.000452154
0.000509481
0.00052009
0.00049538
0.000516052
0.000453948
0.000511425
0.000520386
0.000495671
0.00051635
0.00045422
0.000511726
0.000525741
0.000501116
0.000521766
0.000459537
0.000517286
0.000525355
0.000500995
0.000521806
0.000459822
0.000515422
0.000520094
0.00049565
0.000516489
0.000454603
0.000509961
0.000519801
0.000495361
0.000516193
0.000454334
0.000509663
0.000517894
0.00049346
0.000514258
0.000452542
0.000507725
0.000517697
0.000493266
0.000514058
0.00045236
0.000507524
0.000516852
0.00049243
0.000513198
0.000451575
0.000506664
0.000516749
0.000492328
0.000513092
0.000451479
0.000506558
0.00051638
0.000491964
0.000512716
0.000451137
0.000506181
0.000516338
0.000491922
0.000512672
0.000451098
0.000506138
0.000516234
0.00049182
0.000512566
0.000451001
0.000506031
0.000516234
0.00049182
0.000512566
0.000451001
0.000506031
0.000516338
0.000491922
0.000512672
0.000451098
0.000506138
0.00051638
0.000491964
0.000512716
0.000451137
0.000506181
0.000516749
0.000492328
0.000513092
0.000451479
0.000506558
0.000516852
0.00049243
0.000513198
0.000451575
0.000506664
0.000517697
0.000493266
0.000514058
0.00045236
0.000507524
0.000517894
0.00049346
0.000514258
0.000452542
0.000507725
0.000519801
0.000495361
0.000516193
0.000454334
0.000509663
0.000520094
0.00049565
0.000516489
0.000454603
0.000509961
0.000525355
0.000500995
0.000521806
0.000459822
0.000515422
0.000525
0.000500896
0.000521862
0.000460046
0.000513821
0.00051983
0.000495648
0.000516642
0.000454924
0.000508456
0.000519541
0.000495362
0.000516349
0.000454657
0.000508161
0.000517636
0.000493464
0.000514418
0.000452867
0.000506229
0.000517441
0.000493272
0.000514218
0.000452687
0.000506029
0.000516596
0.000492436
0.000513358
0.000451901
0.00050517
0.000516493
0.000492334
0.000513253
0.000451806
0.000505064
0.000516123
0.000491969
0.000512876
0.000451463
0.000504688
0.000516081
0.000491928
0.000512833
0.000451424
0.000504644
0.000515977
0.000491825
0.000512727
0.000451327
0.000504538
0.000515977
0.000491825
0.000512727
0.000451327
0.000504538
0.000516081
0.000491928
0.000512833
0.000451424
0.000504644
0.000516123
0.000491969
0.000512876
0.000451463
0.000504688
0.000516493
0.000492334
0.000513253
0.000451806
0.000505064
0.000516596
0.000492436
0.000513358
0.000451901
0.00050517
0.000517441
0.000493272
0.000514218
0.000452687
0.000506029
0.000517636
0.000493464
0.000514418
0.000452867
0.000506229
0.000519541
0.000495362
0.000516349
0.000454657
0.000508161
0.00051983
0.000495648
0.000516642
0.000454924
0.000508456
0.000525
0.000500896
0.000521862
0.000460046
0.000513821
0.000524667
0.00050081
0.000521928
0.00046021
0.000512283
0.000519588
0.000495657
0.000516802
0.000455182
0.000507011
0.0005193
0.000495374
0.000516512
0.000454918
0.00050672
0.0005174
0.000493481
0.000514585
0.000453132
0.000504794
0.000517205
0.000493289
0.000514387
0.000452952
0.000504595
0.00051636
0.000492453
0.000513527
0.000452166
0.000503737
0.000516257
0.000492352
0.000513421
0.000452071
0.000503631
0.000515887
0.000491987
0.000513045
0.000451728
0.000503255
0.000515846
0.000491946
0.000513002
0.000451689
0.000503212
0.000515741
0.000491843
0.000512895
0.000451592
0.000503106
0.000515741
0.000491843
0.000512895
0.000451592
0.000503106
0.000515846
0.000491946
0.000513002
0.000451689
0.000503212
0.000515887
0.000491987
0.000513045
0.000451728
0.000503255
0.000516257
0.000492352
0.000513421
0.000452071
0.000503631
0.00051636
0.000492453
0.000513527
0.000452166
0.000503737
0.000517205
0.000493289
0.000514387
0.000452952
0.000504595
0.0005174
0.000493481
0.000514585
0.000453132
0.000504794
0.0005193
0.000495374
0.000516512
0.000454918
0.00050672
0.000519588
0.000495657
0.000516802
0.000455182
0.000507011
0.000524667
0.00050081
0.000521928
0.00046021
0.000512283
0.000524351
0.000500734
0.000522001
0.000460311
0.000510739
0.000519361
0.000495674
0.000516967
0.000455377
0.000505559
0.000519076
0.000495393
0.00051668
0.000455115
0.00050527
0.000517179
0.000493504
0.000514757
0.000453332
0.000503351
0.000516985
0.000493314
0.00051456
0.000453154
0.000503153
0.00051614
0.000492478
0.0005137
0.000452368
0.000502296
0.000516038
0.000492377
0.000513595
0.000452273
0.000502191
0.000515668
0.000492012
0.000513218
0.000451929
0.000501815
0.000515626
0.000491971
0.000513175
0.000451891
0.000501771
0.000515522
0.000491868
0.000513069
0.000451794
0.000501665
0.000515522
0.000491868
0.000513069
0.000451794
0.000501665
0.000515626
0.000491971
0.000513175
0.000451891
0.000501771
0.000515668
0.000492012
0.000513218
0.000451929
0.000501815
0.000516038
0.000492377
0.000513595
0.000452273
0.000502191
0.00051614
0.000492478
0.0005137
0.000452368
0.000502296
0.000516985
0.000493314
0.00051456
0.000453154
0.000503153
0.000517179
0.000493504
0.000514757
0.000453332
0.000503351
0.000519076
0.000495393
0.00051668
0.000455115
0.00050527
0.000519361
0.000495674
0.000516967
0.000455377
0.000505559
0.000524351
0.000500734
0.000522001
0.000460311
0.000510739
0.000524053
0.000500667
0.000522081
0.000460349
0.000509201
0.000519149
0.000495698
0.000517138
0.000455506
0.000504109
0.000518866
0.00049542
0.000516853
0.000455247
0.000503824
0.000516974
0.000493535
0.000514935
0.000453469
0.000501911
0.000516781
0.000493346
0.000514739
0.000453291
0.000501715
0.000515935
0.00049251
0.000513878
0.000452505
0.000500858
0.000515834
0.00049241
0.000513774
0.000452411
0.000500754
0.000515464
0.000492044
0.000513397
0.000452067
0.000500378
0.000515422
0.000492003
0.000513354
0.000452029
0.000500335
0.000515318
0.000491901
0.000513248
0.000451932
0.000500229
0.000515318
0.000491901
0.000513248
0.000451932
0.000500229
0.000515422
0.000492003
0.000513354
0.000452029
0.000500335
0.000515464
0.000492044
0.000513397
0.000452067
0.000500378
0.000515834
0.00049241
0.000513774
0.000452411
0.000500754
0.000515935
0.00049251
0.000513878
0.000452505
0.000500858
0.000516781
0.000493346
0.000514739
0.000453291
0.000501715
0.000516974
0.000493535
0.000514935
0.000453469
0.000501911
0.000518866
0.00049542
0.000516853
0.000455247
0.000503824
0.000519149
0.000495698
0.000517138
0.000455506
0.000504109
0.000524053
0.000500667
0.000522081
0.000460349
0.000509201
0.000523772
0.00050061
0.00052217
0.000460325
0.000507682
0.000518953
0.000495729
0.000517316
0.000455573
0.000502676
0.000518673
0.000495454
0.000517034
0.000455316
0.000502393
0.000516784
0.000493574
0.00051512
0.000453543
0.000500488
0.000516593
0.000493386
0.000514925
0.000453366
0.000500293
0.000515747
0.00049255
0.000514065
0.000452581
0.000499437
0.000515646
0.00049245
0.000513961
0.000452487
0.000499333
0.000515275
0.000492085
0.000513584
0.000452143
0.000498957
0.000515234
0.000492044
0.000513541
0.000452105
0.000498915
0.000515129
0.000491941
0.000513435
0.000452008
0.000498808
0.000515129
0.000491941
0.000513435
0.000452008
0.000498808
0.000515234
0.000492044
0.000513541
0.000452105
0.000498915
0.000515275
0.000492085
0.000513584
0.000452143
0.000498957
0.000515646
0.00049245
0.000513961
0.000452487
0.000499333
0.000515747
0.00049255
0.000514065
0.000452581
0.000499437
0.000516593
0.000493386
0.000514925
0.000453366
0.000500293
0.000516784
0.000493574
0.00051512
0.000453543
0.000500488
0.000518673
0.000495454
0.000517034
0.000455316
0.000502393
0.000518953
0.000495729
0.000517316
0.000455573
0.000502676
0.000523772
0.00050061
0.00052217
0.000460325
0.000507682
0.000523509
0.000500563
0.00052227
0.00046024
0.000506115
0.000518772
0.000495769
0.000517503
0.000455577
0.000501194
0.000518494
0.000495496
0.000517223
0.000455323
0.000500914
0.000516611
0.000493622
0.000515315
0.000453555
0.000499017
0.00051642
0.000493435
0.000515121
0.000453379
0.000498823
0.000515575
0.000492599
0.000514261
0.000452594
0.000497968
0.000515474
0.0004925
0.000514158
0.000452501
0.000497865
0.000515103
0.000492134
0.00051378
0.000452157
0.000497489
0.000515062
0.000492094
0.000513738
0.000452119
0.000497447
0.000514957
0.000491991
0.000513631
0.000452022
0.000497341
0.000514957
0.000491991
0.000513631
0.000452022
0.000497341
0.000515062
0.000492094
0.000513738
0.000452119
0.000497447
0.000515103
0.000492134
0.00051378
0.000452157
0.000497489
0.000515474
0.0004925
0.000514158
0.000452501
0.000497865
0.000515575
0.000492599
0.000514261
0.000452594
0.000497968
0.00051642
0.000493435
0.000515121
0.000453379
0.000498823
0.000516611
0.000493622
0.000515315
0.000453555
0.000499017
0.000518494
0.000495496
0.000517223
0.000455323
0.000500914
0.000518772
0.000495769
0.000517503
0.000455577
0.000501194
0.000523509
0.000500563
0.00052227
0.00046024
0.000506115
-1.64252e-05
1.59014e-05
2.91532e-06
7.1725e-07
2.5694e-07
1.81974e-07
1.65669e-07
1.62585e-07
1.61834e-07
1.6167e-07
1.61617e-07
1.61594e-07
1.61496e-07
1.61386e-07
1.60519e-07
1.59851e-07
1.53415e-07
1.50645e-07
1.11916e-07
1.07812e-07
-1.65007e-05
1.58647e-05
2.93296e-06
7.231e-07
2.584e-07
1.82331e-07
1.65737e-07
1.62588e-07
1.61819e-07
1.6165e-07
1.61596e-07
1.61572e-07
1.61471e-07
1.61359e-07
1.60478e-07
1.59803e-07
1.53295e-07
1.50518e-07
1.11616e-07
1.076e-07
-1.64955e-05
1.58559e-05
2.93034e-06
7.22764e-07
2.5834e-07
1.82325e-07
1.65736e-07
1.62588e-07
1.61819e-07
1.6165e-07
1.61596e-07
1.61571e-07
1.61471e-07
1.61359e-07
1.60477e-07
1.59802e-07
1.53293e-07
1.50516e-07
1.11613e-07
1.07598e-07
-1.64693e-05
1.58063e-05
2.91541e-06
7.20807e-07
2.5799e-07
1.82285e-07
1.65729e-07
1.62587e-07
1.61818e-07
1.61648e-07
1.61594e-07
1.6157e-07
1.6147e-07
1.61357e-07
1.60475e-07
1.59799e-07
1.53286e-07
1.50509e-07
1.11601e-07
1.07592e-07
-1.64653e-05
1.58e-05
2.91325e-06
7.2047e-07
2.57917e-07
1.82273e-07
1.65726e-07
1.62586e-07
1.61818e-07
1.61648e-07
1.61594e-07
1.6157e-07
1.61469e-07
1.61357e-07
1.60475e-07
1.59799e-07
1.53286e-07
1.50509e-07
1.11601e-07
1.07591e-07
-1.64512e-05
1.57773e-05
2.90565e-06
7.19337e-07
2.57679e-07
1.82235e-07
1.65718e-07
1.62585e-07
1.61817e-07
1.61648e-07
1.61594e-07
1.6157e-07
1.61469e-07
1.61357e-07
1.60474e-07
1.59798e-07
1.53286e-07
1.50509e-07
1.11601e-07
1.07591e-07
-1.64492e-05
1.57741e-05
2.90455e-06
7.1916e-07
2.57639e-07
1.82229e-07
1.65716e-07
1.62585e-07
1.61817e-07
1.61648e-07
1.61594e-07
1.6157e-07
1.61469e-07
1.61357e-07
1.60474e-07
1.59798e-07
1.53286e-07
1.50509e-07
1.11601e-07
1.07591e-07
-1.64431e-05
1.57643e-05
2.90131e-06
7.18674e-07
2.57536e-07
1.82212e-07
1.65712e-07
1.62584e-07
1.61817e-07
1.61648e-07
1.61594e-07
1.6157e-07
1.61469e-07
1.61357e-07
1.60474e-07
1.59798e-07
1.53286e-07
1.50509e-07
1.11601e-07
1.07591e-07
-1.64423e-05
1.5763e-05
2.90087e-06
7.18604e-07
2.5752e-07
1.82209e-07
1.65712e-07
1.62584e-07
1.61817e-07
1.61648e-07
1.61594e-07
1.6157e-07
1.61469e-07
1.61357e-07
1.60474e-07
1.59798e-07
1.53286e-07
1.50509e-07
1.11601e-07
1.07591e-07
-1.64406e-05
1.57603e-05
2.89997e-06
7.18471e-07
2.57492e-07
1.82204e-07
1.65711e-07
1.62584e-07
1.61817e-07
1.61648e-07
1.61594e-07
1.6157e-07
1.61469e-07
1.61357e-07
1.60474e-07
1.59798e-07
1.53286e-07
1.50509e-07
1.11601e-07
1.07591e-07
-1.64406e-05
1.57603e-05
2.89997e-06
7.18471e-07
2.57492e-07
1.82204e-07
1.65711e-07
1.62584e-07
1.61817e-07
1.61648e-07
1.61594e-07
1.6157e-07
1.61469e-07
1.61357e-07
1.60474e-07
1.59798e-07
1.53286e-07
1.50509e-07
1.11601e-07
1.07591e-07
-1.64423e-05
1.5763e-05
2.90087e-06
7.18604e-07
2.5752e-07
1.82209e-07
1.65712e-07
1.62584e-07
1.61817e-07
1.61648e-07
1.61594e-07
1.6157e-07
1.61469e-07
1.61357e-07
1.60474e-07
1.59798e-07
1.53286e-07
1.50509e-07
1.11601e-07
1.07591e-07
-1.64431e-05
1.57643e-05
2.90131e-06
7.18674e-07
2.57536e-07
1.82212e-07
1.65712e-07
1.62584e-07
1.61817e-07
1.61648e-07
1.61594e-07
1.6157e-07
1.61469e-07
1.61357e-07
1.60474e-07
1.59798e-07
1.53286e-07
1.50509e-07
1.11601e-07
1.07591e-07
-1.64492e-05
1.57741e-05
2.90455e-06
7.1916e-07
2.57639e-07
1.82229e-07
1.65716e-07
1.62585e-07
1.61817e-07
1.61648e-07
1.61594e-07
1.6157e-07
1.61469e-07
1.61357e-07
1.60474e-07
1.59798e-07
1.53286e-07
1.50509e-07
1.11601e-07
1.07591e-07
-1.64512e-05
1.57773e-05
2.90565e-06
7.19337e-07
2.57679e-07
1.82235e-07
1.65718e-07
1.62585e-07
1.61817e-07
1.61648e-07
1.61594e-07
1.6157e-07
1.61469e-07
1.61357e-07
1.60474e-07
1.59798e-07
1.53286e-07
1.50509e-07
1.11601e-07
1.07591e-07
-1.64653e-05
1.58e-05
2.91325e-06
7.2047e-07
2.57917e-07
1.82273e-07
1.65726e-07
1.62586e-07
1.61818e-07
1.61648e-07
1.61594e-07
1.6157e-07
1.61469e-07
1.61357e-07
1.60475e-07
1.59799e-07
1.53286e-07
1.50509e-07
1.11601e-07
1.07591e-07
-1.64693e-05
1.58063e-05
2.91541e-06
7.20807e-07
2.5799e-07
1.82285e-07
1.65729e-07
1.62587e-07
1.61818e-07
1.61648e-07
1.61594e-07
1.6157e-07
1.6147e-07
1.61357e-07
1.60475e-07
1.59799e-07
1.53286e-07
1.50509e-07
1.11601e-07
1.07592e-07
-1.64955e-05
1.58559e-05
2.93034e-06
7.22764e-07
2.5834e-07
1.82325e-07
1.65736e-07
1.62588e-07
1.61819e-07
1.6165e-07
1.61596e-07
1.61571e-07
1.61471e-07
1.61359e-07
1.60477e-07
1.59802e-07
1.53293e-07
1.50516e-07
1.11613e-07
1.07598e-07
-1.65007e-05
1.58647e-05
2.93296e-06
7.231e-07
2.584e-07
1.82331e-07
1.65737e-07
1.62588e-07
1.61819e-07
1.6165e-07
1.61596e-07
1.61572e-07
1.61471e-07
1.61359e-07
1.60478e-07
1.59803e-07
1.53295e-07
1.50518e-07
1.11616e-07
1.076e-07
-1.64252e-05
1.59014e-05
2.91532e-06
7.1725e-07
2.5694e-07
1.81974e-07
1.65669e-07
1.62585e-07
1.61834e-07
1.6167e-07
1.61617e-07
1.61594e-07
1.61496e-07
1.61386e-07
1.60519e-07
1.59851e-07
1.53415e-07
1.50645e-07
1.11916e-07
1.07812e-07
-1.6042e-05
1.60732e-05
2.94171e-06
7.22876e-07
2.57954e-07
1.82205e-07
1.65701e-07
1.62676e-07
1.61926e-07
1.61758e-07
1.61705e-07
1.61681e-07
1.61582e-07
1.6147e-07
1.60564e-07
1.59833e-07
1.53333e-07
1.50537e-07
1.11321e-07
1.07188e-07
-1.61123e-05
1.60365e-05
2.95956e-06
7.28792e-07
2.59432e-07
1.82566e-07
1.65772e-07
1.62677e-07
1.61911e-07
1.61739e-07
1.61684e-07
1.6166e-07
1.61558e-07
1.61444e-07
1.60522e-07
1.59784e-07
1.53212e-07
1.50409e-07
1.11017e-07
1.06972e-07
-1.6107e-05
1.60277e-05
2.95691e-06
7.28452e-07
2.59371e-07
1.8256e-07
1.65771e-07
1.62677e-07
1.6191e-07
1.61739e-07
1.61684e-07
1.61659e-07
1.61557e-07
1.61444e-07
1.60521e-07
1.59783e-07
1.5321e-07
1.50407e-07
1.11014e-07
1.0697e-07
-1.60798e-05
1.59775e-05
2.94183e-06
7.26477e-07
2.59017e-07
1.82519e-07