/*--------------------------------*- C++ -*----------------------------------*\
  =========                 |
  \\      /  F ield         | OpenFOAM: The Open Source CFD Toolbox
   \\    /   O peration     | Website:  https://openfoam.org
    \\  /    A nd           | Version:  8
     \\/     M anipulation  |
\*---------------------------------------------------------------------------*/
FoamFile
{
    version     2.0;
    format      ascii;
    class       volScalarField;
    location    "2.7";
    object      S1;
}
// * * * * * * * * * * * * * * * * * * * * * * * * * * * * * * * * * * * * * //

dimensions      [0 1 -1 0 0 0 0];

internalField   nonuniform List<scalar> 
180000
(
-2.48813e-27
-6.25586e-23
-1.21503e-18
-1.24865e-14
2.1931e-10
-2.60538e-27
-6.39503e-23
-1.18178e-18
-9.63448e-15
3.29283e-10
-2.60983e-27
-6.40327e-23
-1.18243e-18
-9.60987e-15
3.30602e-10
-2.62451e-27
-6.43065e-23
-1.18466e-18
-9.52947e-15
3.3496e-10
-2.62528e-27
-6.43268e-23
-1.18517e-18
-9.54341e-15
3.34531e-10
-2.62738e-27
-6.43857e-23
-1.18677e-18
-9.5891e-15
3.33116e-10
-2.62759e-27
-6.43928e-23
-1.18701e-18
-9.59722e-15
3.32846e-10
-2.62814e-27
-6.44112e-23
-1.18762e-18
-9.61771e-15
3.3217e-10
-2.6282e-27
-6.44137e-23
-1.18771e-18
-9.62078e-15
3.32067e-10
-2.62832e-27
-6.4418e-23
-1.18786e-18
-9.62602e-15
3.31892e-10
-2.62832e-27
-6.4418e-23
-1.18786e-18
-9.62602e-15
3.31892e-10
-2.6282e-27
-6.44137e-23
-1.18771e-18
-9.62078e-15
3.32067e-10
-2.62814e-27
-6.44112e-23
-1.18762e-18
-9.61771e-15
3.3217e-10
-2.62759e-27
-6.43928e-23
-1.18701e-18
-9.59722e-15
3.32846e-10
-2.62738e-27
-6.43857e-23
-1.18677e-18
-9.5891e-15
3.33116e-10
-2.62528e-27
-6.43268e-23
-1.18517e-18
-9.54341e-15
3.34531e-10
-2.62451e-27
-6.43065e-23
-1.18466e-18
-9.52947e-15
3.3496e-10
-2.60983e-27
-6.40327e-23
-1.18243e-18
-9.60987e-15
3.30602e-10
-2.60538e-27
-6.39503e-23
-1.18178e-18
-9.63448e-15
3.29283e-10
-2.48813e-27
-6.25586e-23
-1.21503e-18
-1.24865e-14
2.1931e-10
-2.4881e-27
-6.25568e-23
-1.21482e-18
-1.22796e-14
5.78039e-10
-2.60535e-27
-6.39485e-23
-1.18157e-18
-9.40735e-15
7.26585e-10
-2.6098e-27
-6.40308e-23
-1.18222e-18
-9.38267e-15
7.2813e-10
-2.62448e-27
-6.43047e-23
-1.18445e-18
-9.30255e-15
7.32821e-10
-2.62525e-27
-6.4325e-23
-1.18496e-18
-9.31673e-15
7.32062e-10
-2.62735e-27
-6.43838e-23
-1.18656e-18
-9.36328e-15
7.29467e-10
-2.62757e-27
-6.4391e-23
-1.1868e-18
-9.37153e-15
7.29009e-10
-2.62811e-27
-6.44093e-23
-1.18741e-18
-9.39241e-15
7.27795e-10
-2.62817e-27
-6.44118e-23
-1.1875e-18
-9.39554e-15
7.2762e-10
-2.6283e-27
-6.44162e-23
-1.18765e-18
-9.40089e-15
7.273e-10
-2.6283e-27
-6.44162e-23
-1.18765e-18
-9.40088e-15
7.273e-10
-2.62817e-27
-6.44118e-23
-1.1875e-18
-9.39554e-15
7.2762e-10
-2.62811e-27
-6.44093e-23
-1.18741e-18
-9.39241e-15
7.27795e-10
-2.62757e-27
-6.4391e-23
-1.1868e-18
-9.37153e-15
7.29009e-10
-2.62735e-27
-6.43838e-23
-1.18656e-18
-9.36328e-15
7.29467e-10
-2.62525e-27
-6.4325e-23
-1.18496e-18
-9.31672e-15
7.32062e-10
-2.62448e-27
-6.43047e-23
-1.18445e-18
-9.30255e-15
7.32821e-10
-2.6098e-27
-6.40308e-23
-1.18222e-18
-9.38267e-15
7.2813e-10
-2.60535e-27
-6.39485e-23
-1.18157e-18
-9.40735e-15
7.26585e-10
-2.4881e-27
-6.25568e-23
-1.21482e-18
-1.22796e-14
5.78039e-10
-2.48808e-27
-6.25523e-23
-1.21303e-18
-9.85833e-15
4.41867e-09
-2.60532e-27
-6.39437e-23
-1.17969e-18
-6.82024e-15
4.85148e-09
-2.60978e-27
-6.40261e-23
-1.18034e-18
-6.79567e-15
4.85412e-09
-2.62446e-27
-6.42999e-23
-1.18258e-18
-6.72032e-15
4.85941e-09
-2.62523e-27
-6.43202e-23
-1.18309e-18
-6.73678e-15
4.85595e-09
-2.62733e-27
-6.43791e-23
-1.1847e-18
-6.79183e-15
4.8436e-09
-2.62754e-27
-6.43862e-23
-1.18494e-18
-6.80134e-15
4.84162e-09
-2.62808e-27
-6.44046e-23
-1.18555e-18
-6.82605e-15
4.83595e-09
-2.62815e-27
-6.4407e-23
-1.18564e-18
-6.82967e-15
4.83518e-09
-2.62827e-27
-6.44114e-23
-1.1858e-18
-6.83606e-15
4.83365e-09
-2.62827e-27
-6.44114e-23
-1.1858e-18
-6.83606e-15
4.83365e-09
-2.62815e-27
-6.4407e-23
-1.18564e-18
-6.82967e-15
4.83518e-09
-2.62808e-27
-6.44046e-23
-1.18555e-18
-6.82605e-15
4.83595e-09
-2.62754e-27
-6.43862e-23
-1.18494e-18
-6.80134e-15
4.84162e-09
-2.62733e-27
-6.43791e-23
-1.1847e-18
-6.79183e-15
4.8436e-09
-2.62523e-27
-6.43202e-23
-1.18309e-18
-6.73678e-15
4.85595e-09
-2.62446e-27
-6.42999e-23
-1.18258e-18
-6.72032e-15
4.85941e-09
-2.60978e-27
-6.40261e-23
-1.18034e-18
-6.79567e-15
4.85412e-09
-2.60532e-27
-6.39437e-23
-1.17969e-18
-6.82023e-15
4.85148e-09
-2.48808e-27
-6.25523e-23
-1.21303e-18
-9.85833e-15
4.41867e-09
-2.48804e-27
-6.25392e-23
-1.20343e-18
2.50653e-15
2.16442e-08
-2.60529e-27
-6.39303e-23
-1.1697e-18
6.12696e-15
2.29392e-08
-2.60974e-27
-6.40127e-23
-1.17037e-18
6.14892e-15
2.29437e-08
-2.62442e-27
-6.42865e-23
-1.17265e-18
6.19687e-15
2.29466e-08
-2.62519e-27
-6.43068e-23
-1.17318e-18
6.17078e-15
2.29341e-08
-2.62729e-27
-6.43657e-23
-1.17482e-18
6.0796e-15
2.28894e-08
-2.62751e-27
-6.43729e-23
-1.17507e-18
6.06479e-15
2.28823e-08
-2.62805e-27
-6.43912e-23
-1.1757e-18
6.02381e-15
2.28617e-08
-2.62811e-27
-6.43937e-23
-1.17579e-18
6.01809e-15
2.2859e-08
-2.62824e-27
-6.43981e-23
-1.17595e-18
6.0072e-15
2.28533e-08
-2.62824e-27
-6.43981e-23
-1.17595e-18
6.0072e-15
2.28533e-08
-2.62811e-27
-6.43937e-23
-1.17579e-18
6.01809e-15
2.2859e-08
-2.62805e-27
-6.43912e-23
-1.1757e-18
6.02381e-15
2.28617e-08
-2.62751e-27
-6.43729e-23
-1.17507e-18
6.06479e-15
2.28823e-08
-2.62729e-27
-6.43657e-23
-1.17482e-18
6.0796e-15
2.28894e-08
-2.62519e-27
-6.43068e-23
-1.17318e-18
6.17078e-15
2.29341e-08
-2.62442e-27
-6.42865e-23
-1.17265e-18
6.19687e-15
2.29466e-08
-2.60974e-27
-6.40127e-23
-1.17037e-18
6.14893e-15
2.29437e-08
-2.60529e-27
-6.39303e-23
-1.1697e-18
6.12696e-15
2.29392e-08
-2.48804e-27
-6.25392e-23
-1.20343e-18
2.50653e-15
2.16442e-08
-2.48799e-27
-6.25029e-23
-1.16963e-18
4.09373e-14
6.67427e-08
-2.60523e-27
-6.38933e-23
-1.13501e-18
4.57615e-14
6.94776e-08
-2.60969e-27
-6.39757e-23
-1.1357e-18
4.57715e-14
6.94814e-08
-2.62437e-27
-6.42497e-23
-1.13815e-18
4.57279e-14
6.94682e-08
-2.62514e-27
-6.42701e-23
-1.13871e-18
4.56765e-14
6.94382e-08
-2.62724e-27
-6.43291e-23
-1.14049e-18
4.54898e-14
6.93309e-08
-2.62745e-27
-6.43362e-23
-1.14075e-18
4.54612e-14
6.9314e-08
-2.62799e-27
-6.43547e-23
-1.14144e-18
4.53771e-14
6.92643e-08
-2.62806e-27
-6.43572e-23
-1.14154e-18
4.53658e-14
6.92576e-08
-2.62818e-27
-6.43616e-23
-1.14171e-18
4.5343e-14
6.92439e-08
-2.62818e-27
-6.43616e-23
-1.14171e-18
4.5343e-14
6.92439e-08
-2.62806e-27
-6.43572e-23
-1.14154e-18
4.53658e-14
6.92576e-08
-2.62799e-27
-6.43547e-23
-1.14144e-18
4.53771e-14
6.92643e-08
-2.62745e-27
-6.43362e-23
-1.14075e-18
4.54612e-14
6.9314e-08
-2.62724e-27
-6.43291e-23
-1.14049e-18
4.54898e-14
6.93309e-08
-2.62514e-27
-6.42701e-23
-1.13871e-18
4.56765e-14
6.94382e-08
-2.62437e-27
-6.42497e-23
-1.13815e-18
4.57279e-14
6.94682e-08
-2.60969e-27
-6.39757e-23
-1.1357e-18
4.57715e-14
6.94814e-08
-2.60523e-27
-6.38933e-23
-1.13501e-18
4.57615e-14
6.94776e-08
-2.48799e-27
-6.25029e-23
-1.16963e-18
4.09373e-14
6.67427e-08
-2.48787e-27
-6.24101e-23
-1.08105e-18
1.27973e-13
1.50728e-07
-2.60511e-27
-6.37994e-23
-1.04501e-18
1.34498e-13
1.55001e-07
-2.60957e-27
-6.38819e-23
-1.04577e-18
1.34475e-13
1.54996e-07
-2.62425e-27
-6.41565e-23
-1.04868e-18
1.34209e-13
1.5493e-07
-2.62502e-27
-6.4177e-23
-1.04932e-18
1.34107e-13
1.54874e-07
-2.62712e-27
-6.42364e-23
-1.05141e-18
1.3373e-13
1.54677e-07
-2.62733e-27
-6.42436e-23
-1.05172e-18
1.33674e-13
1.54646e-07
-2.62788e-27
-6.42622e-23
-1.05254e-18
1.33504e-13
1.54555e-07
-2.62794e-27
-6.42647e-23
-1.05266e-18
1.33482e-13
1.54542e-07
-2.62807e-27
-6.42691e-23
-1.05287e-18
1.33435e-13
1.54517e-07
-2.62807e-27
-6.42691e-23
-1.05287e-18
1.33435e-13
1.54517e-07
-2.62794e-27
-6.42647e-23
-1.05266e-18
1.33482e-13
1.54542e-07
-2.62788e-27
-6.42622e-23
-1.05254e-18
1.33504e-13
1.54555e-07
-2.62733e-27
-6.42436e-23
-1.05172e-18
1.33674e-13
1.54646e-07
-2.62712e-27
-6.42364e-23
-1.05141e-18
1.3373e-13
1.54677e-07
-2.62502e-27
-6.4177e-23
-1.04932e-18
1.34107e-13
1.54874e-07
-2.62425e-27
-6.41565e-23
-1.04868e-18
1.34209e-13
1.5493e-07
-2.60957e-27
-6.38819e-23
-1.04577e-18
1.34475e-13
1.54996e-07
-2.60511e-27
-6.37994e-23
-1.04501e-18
1.34498e-13
1.55001e-07
-2.48787e-27
-6.24101e-23
-1.08105e-18
1.27973e-13
1.50728e-07
-2.48762e-27
-6.21992e-23
-8.915e-19
2.8834e-13
2.77269e-07
-2.60486e-27
-6.35874e-23
-8.53951e-19
2.96596e-13
2.82614e-07
-2.60932e-27
-6.36702e-23
-8.54868e-19
2.96502e-13
2.82586e-07
-2.624e-27
-6.39464e-23
-8.58796e-19
2.9579e-13
2.82396e-07
-2.62477e-27
-6.3967e-23
-8.59598e-19
2.95604e-13
2.82309e-07
-2.62688e-27
-6.40273e-23
-8.62313e-19
2.94906e-13
2.81997e-07
-2.62709e-27
-6.40346e-23
-8.62706e-19
2.94804e-13
2.81948e-07
-2.62763e-27
-6.40537e-23
-8.63813e-19
2.9449e-13
2.81803e-07
-2.6277e-27
-6.40562e-23
-8.63963e-19
2.94449e-13
2.81784e-07
-2.62782e-27
-6.40608e-23
-8.64253e-19
2.94362e-13
2.81744e-07
-2.62782e-27
-6.40608e-23
-8.64253e-19
2.94362e-13
2.81744e-07
-2.6277e-27
-6.40562e-23
-8.63963e-19
2.94449e-13
2.81784e-07
-2.62763e-27
-6.40537e-23
-8.63813e-19
2.9449e-13
2.81803e-07
-2.62709e-27
-6.40346e-23
-8.62706e-19
2.94804e-13
2.81948e-07
-2.62688e-27
-6.40273e-23
-8.62313e-19
2.94906e-13
2.81997e-07
-2.62477e-27
-6.3967e-23
-8.59598e-19
2.95604e-13
2.82309e-07
-2.624e-27
-6.39464e-23
-8.58796e-19
2.9579e-13
2.82396e-07
-2.60932e-27
-6.36702e-23
-8.54868e-19
2.96502e-13
2.82586e-07
-2.60486e-27
-6.35874e-23
-8.53951e-19
2.96596e-13
2.82614e-07
-2.48762e-27
-6.21992e-23
-8.915e-19
2.8834e-13
2.77269e-07
-2.4871e-27
-6.17707e-23
-5.39609e-19
5.46061e-13
4.45017e-07
-2.60434e-27
-6.31596e-23
-5.01466e-19
5.55412e-13
4.50635e-07
-2.6088e-27
-6.32429e-23
-5.02692e-19
5.55191e-13
4.50565e-07
-2.62349e-27
-6.35222e-23
-5.08555e-19
5.53701e-13
4.50145e-07
-2.62426e-27
-6.35434e-23
-5.09644e-19
5.53388e-13
4.50018e-07
-2.62637e-27
-6.36054e-23
-5.13485e-19
5.52197e-13
4.49559e-07
-2.62658e-27
-6.3613e-23
-5.14031e-19
5.52027e-13
4.49489e-07
-2.62712e-27
-6.36328e-23
-5.15636e-19
5.51493e-13
4.49278e-07
-2.62719e-27
-6.36355e-23
-5.15847e-19
5.51425e-13
4.4925e-07
-2.62731e-27
-6.36403e-23
-5.16277e-19
5.51277e-13
4.49191e-07
-2.62731e-27
-6.36403e-23
-5.16277e-19
5.51277e-13
4.49191e-07
-2.62719e-27
-6.36355e-23
-5.15847e-19
5.51425e-13
4.4925e-07
-2.62712e-27
-6.36328e-23
-5.15636e-19
5.51493e-13
4.49278e-07
-2.62658e-27
-6.3613e-23
-5.14031e-19
5.52027e-13
4.49489e-07
-2.62637e-27
-6.36054e-23
-5.13485e-19
5.52197e-13
4.49559e-07
-2.62426e-27
-6.35434e-23
-5.09644e-19
5.53388e-13
4.50018e-07
-2.62349e-27
-6.35222e-23
-5.08555e-19
5.53701e-13
4.50145e-07
-2.6088e-27
-6.32429e-23
-5.02692e-19
5.55191e-13
4.50565e-07
-2.60434e-27
-6.31596e-23
-5.01466e-19
5.55412e-13
4.50635e-07
-2.4871e-27
-6.17707e-23
-5.39609e-19
5.46061e-13
4.45017e-07
-2.48607e-27
-6.0979e-23
5.01586e-20
9.23502e-13
6.51001e-07
-2.60332e-27
-6.23729e-23
8.63647e-20
9.3258e-13
6.55962e-07
-2.60779e-27
-6.24573e-23
8.46019e-20
9.32158e-13
6.55828e-07
-2.62248e-27
-6.27427e-23
7.53957e-20
9.29433e-13
6.55039e-07
-2.62326e-27
-6.27647e-23
7.38428e-20
9.28939e-13
6.54863e-07
-2.62537e-27
-6.28301e-23
6.81573e-20
9.27041e-13
6.54213e-07
-2.62558e-27
-6.28381e-23
6.73654e-20
9.26775e-13
6.54117e-07
-2.62613e-27
-6.28594e-23
6.49468e-20
9.25927e-13
6.53822e-07
-2.62619e-27
-6.28622e-23
6.46363e-20
9.2582e-13
6.53783e-07
-2.62632e-27
-6.28674e-23
6.39786e-20
9.25583e-13
6.537e-07
-2.62632e-27
-6.28674e-23
6.39786e-20
9.25583e-13
6.537e-07
-2.62619e-27
-6.28622e-23
6.46363e-20
9.2582e-13
6.53783e-07
-2.62613e-27
-6.28594e-23
6.49468e-20
9.25927e-13
6.53822e-07
-2.62558e-27
-6.28381e-23
6.73655e-20
9.26775e-13
6.54117e-07
-2.62537e-27
-6.28301e-23
6.81572e-20
9.27041e-13
6.54213e-07
-2.62326e-27
-6.27647e-23
7.38429e-20
9.28939e-13
6.54863e-07
-2.62248e-27
-6.27427e-23
7.53957e-20
9.29433e-13
6.55039e-07
-2.60779e-27
-6.24573e-23
8.4602e-20
9.32158e-13
6.55828e-07
-2.60332e-27
-6.23729e-23
8.63648e-20
9.3258e-13
6.55962e-07
-2.48607e-27
-6.0979e-23
5.01585e-20
9.23502e-13
6.51001e-07
-2.48417e-27
-5.96239e-23
9.66277e-19
1.44113e-12
8.91889e-07
-2.60145e-27
-6.10323e-23
9.95779e-19
1.4478e-12
8.95194e-07
-2.60592e-27
-6.11184e-23
9.93155e-19
1.44708e-12
8.94972e-07
-2.62064e-27
-6.14146e-23
9.78597e-19
1.44253e-12
8.93649e-07
-2.62141e-27
-6.1438e-23
9.76339e-19
1.44179e-12
8.93412e-07
-2.62353e-27
-6.15089e-23
9.67824e-19
1.43892e-12
8.92516e-07
-2.62375e-27
-6.15177e-23
9.6666e-19
1.43852e-12
8.92388e-07
-2.6243e-27
-6.15414e-23
9.62997e-19
1.43725e-12
8.91986e-07
-2.62437e-27
-6.15445e-23
9.62535e-19
1.43709e-12
8.91934e-07
-2.62449e-27
-6.15504e-23
9.61529e-19
1.43673e-12
8.91821e-07
-2.62449e-27
-6.15504e-23
9.61529e-19
1.43673e-12
8.91821e-07
-2.62437e-27
-6.15445e-23
9.62535e-19
1.43709e-12
8.91934e-07
-2.6243e-27
-6.15414e-23
9.62997e-19
1.43725e-12
8.91986e-07
-2.62375e-27
-6.15177e-23
9.6666e-19
1.43852e-12
8.92388e-07
-2.62353e-27
-6.1509e-23
9.67824e-19
1.43892e-12
8.92516e-07
-2.62141e-27
-6.1438e-23
9.76339e-19
1.44179e-12
8.93412e-07
-2.62064e-27
-6.14146e-23
9.78597e-19
1.44253e-12
8.93649e-07
-2.60592e-27
-6.11184e-23
9.93155e-19
1.44708e-12
8.94972e-07
-2.60145e-27
-6.10323e-23
9.95779e-19
1.4478e-12
8.95194e-07
-2.48417e-27
-5.96239e-23
9.66277e-19
1.44113e-12
8.91889e-07
-2.48092e-27
-5.75064e-23
2.20749e-18
1.95715e-12
8.89532e-07
-2.59825e-27
-5.89434e-23
2.22552e-18
1.96144e-12
8.929e-07
-2.60273e-27
-5.90322e-23
2.22172e-18
1.96043e-12
8.92682e-07
-2.61748e-27
-5.93455e-23
2.19982e-18
1.95407e-12
8.91381e-07
-2.61826e-27
-5.9371e-23
2.19662e-18
1.95309e-12
8.91146e-07
-2.6204e-27
-5.94507e-23
2.1843e-18
1.94925e-12
8.9026e-07
-2.62062e-27
-5.94606e-23
2.18264e-18
1.94873e-12
8.90134e-07
-2.62118e-27
-5.94881e-23
2.1773e-18
1.94703e-12
8.89736e-07
-2.62124e-27
-5.94917e-23
2.17664e-18
1.94682e-12
8.89685e-07
-2.62137e-27
-5.94987e-23
2.17517e-18
1.94634e-12
8.89573e-07
-2.62137e-27
-5.94987e-23
2.17517e-18
1.94634e-12
8.89573e-07
-2.62124e-27
-5.94917e-23
2.17664e-18
1.94682e-12
8.89685e-07
-2.62118e-27
-5.94881e-23
2.1773e-18
1.94703e-12
8.89736e-07
-2.62062e-27
-5.94606e-23
2.18264e-18
1.94873e-12
8.90134e-07
-2.6204e-27
-5.94507e-23
2.1843e-18
1.94925e-12
8.9026e-07
-2.61826e-27
-5.9371e-23
2.19662e-18
1.95309e-12
8.91146e-07
-2.61748e-27
-5.93455e-23
2.19982e-18
1.95407e-12
8.91381e-07
-2.60273e-27
-5.90322e-23
2.22172e-18
1.96043e-12
8.92682e-07
-2.59825e-27
-5.89434e-23
2.22552e-18
1.96144e-12
8.929e-07
-2.48092e-27
-5.75064e-23
2.20749e-18
1.95715e-12
8.89532e-07
-2.47569e-27
-5.44282e-23
3.77249e-18
2.47156e-12
8.87242e-07
-2.59313e-27
-5.59129e-23
3.77428e-18
2.47349e-12
8.90671e-07
-2.59763e-27
-5.60057e-23
3.76898e-18
2.47219e-12
8.90457e-07
-2.61243e-27
-5.6344e-23
3.73779e-18
2.46404e-12
8.89176e-07
-2.61322e-27
-5.63726e-23
3.73341e-18
2.46282e-12
8.88945e-07
-2.61538e-27
-5.64649e-23
3.71632e-18
2.45803e-12
8.88068e-07
-2.6156e-27
-5.64764e-23
3.71403e-18
2.45738e-12
8.87943e-07
-2.61617e-27
-5.65095e-23
3.7066e-18
2.45525e-12
8.87549e-07
-2.61624e-27
-5.65137e-23
3.70569e-18
2.45499e-12
8.87499e-07
-2.61637e-27
-5.65222e-23
3.70363e-18
2.45439e-12
8.87389e-07
-2.61637e-27
-5.65222e-23
3.70363e-18
2.45439e-12
8.87389e-07
-2.61624e-27
-5.65137e-23
3.70569e-18
2.45499e-12
8.87499e-07
-2.61617e-27
-5.65095e-23
3.7066e-18
2.45525e-12
8.87549e-07
-2.6156e-27
-5.64764e-23
3.71403e-18
2.45738e-12
8.87943e-07
-2.61538e-27
-5.64649e-23
3.71631e-18
2.45803e-12
8.88068e-07
-2.61322e-27
-5.63726e-23
3.73341e-18
2.46282e-12
8.88945e-07
-2.61243e-27
-5.6344e-23
3.73779e-18
2.46404e-12
8.89176e-07
-2.59763e-27
-5.60057e-23
3.76898e-18
2.47219e-12
8.90457e-07
-2.59313e-27
-5.59128e-23
3.77428e-18
2.47349e-12
8.90671e-07
-2.47569e-27
-5.44282e-23
3.77249e-18
2.47156e-12
8.87242e-07
-2.46774e-27
-5.01922e-23
5.65987e-18
2.98428e-12
8.85013e-07
-2.58536e-27
-5.17484e-23
5.64064e-18
2.98387e-12
8.885e-07
-2.58988e-27
-5.18469e-23
5.63355e-18
2.98229e-12
8.88289e-07
-2.60477e-27
-5.22198e-23
5.59111e-18
2.97236e-12
8.87029e-07
-2.60556e-27
-5.22526e-23
5.58533e-18
2.97091e-12
8.868e-07
-2.60777e-27
-5.23622e-23
5.56251e-18
2.96517e-12
8.85933e-07
-2.60799e-27
-5.23759e-23
5.55948e-18
2.96439e-12
8.8581e-07
-2.60858e-27
-5.24165e-23
5.54954e-18
2.96185e-12
8.8542e-07
-2.60865e-27
-5.24217e-23
5.54833e-18
2.96154e-12
8.8537e-07
-2.60879e-27
-5.24323e-23
5.54556e-18
2.96083e-12
8.85261e-07
-2.60879e-27
-5.24323e-23
5.54556e-18
2.96083e-12
8.85261e-07
-2.60865e-27
-5.24216e-23
5.54833e-18
2.96154e-12
8.8537e-07
-2.60858e-27
-5.24165e-23
5.54954e-18
2.96185e-12
8.8542e-07
-2.60799e-27
-5.23759e-23
5.55948e-18
2.96439e-12
8.8581e-07
-2.60777e-27
-5.23622e-23
5.56251e-18
2.96517e-12
8.85933e-07
-2.60556e-27
-5.22526e-23
5.58533e-18
2.97091e-12
8.868e-07
-2.60477e-27
-5.22198e-23
5.59111e-18
2.97236e-12
8.87029e-07
-2.58988e-27
-5.18469e-23
5.63355e-18
2.98229e-12
8.88289e-07
-2.58536e-27
-5.17484e-23
5.64064e-18
2.98387e-12
8.885e-07
-2.46774e-27
-5.01922e-23
5.65987e-18
2.98428e-12
8.85013e-07
-2.4562e-27
-4.46022e-23
7.86814e-18
3.49524e-12
8.82839e-07
-2.57411e-27
-4.6259e-23
7.82312e-18
3.4925e-12
8.86383e-07
-2.57864e-27
-4.63647e-23
7.81394e-18
3.49065e-12
8.86176e-07
-2.59366e-27
-4.67834e-23
7.75835e-18
3.47897e-12
8.84935e-07
-2.59447e-27
-4.68218e-23
7.75094e-18
3.47728e-12
8.84709e-07
-2.59673e-27
-4.69541e-23
7.72143e-18
3.4706e-12
8.83851e-07
-2.59697e-27
-4.69707e-23
7.71755e-18
3.46971e-12
8.83729e-07
-2.59758e-27
-4.70213e-23
7.70468e-18
3.46675e-12
8.83343e-07
-2.59765e-27
-4.70276e-23
7.70312e-18
3.46639e-12
8.83294e-07
-2.5978e-27
-4.7041e-23
7.69953e-18
3.46556e-12
8.83185e-07
-2.5978e-27
-4.7041e-23
7.69953e-18
3.46556e-12
8.83185e-07
-2.59765e-27
-4.70276e-23
7.70312e-18
3.46639e-12
8.83294e-07
-2.59758e-27
-4.70213e-23
7.70468e-18
3.46675e-12
8.83343e-07
-2.59697e-27
-4.69707e-23
7.71755e-18
3.46971e-12
8.83729e-07
-2.59673e-27
-4.69541e-23
7.72143e-18
3.4706e-12
8.83851e-07
-2.59447e-27
-4.68217e-23
7.75094e-18
3.47728e-12
8.84709e-07
-2.59366e-27
-4.67834e-23
7.75835e-18
3.47897e-12
8.84935e-07
-2.57864e-27
-4.63647e-23
7.81394e-18
3.49065e-12
8.86176e-07
-2.57411e-27
-4.62589e-23
7.82312e-18
3.4925e-12
8.86383e-07
-2.4562e-27
-4.46023e-23
7.86814e-18
3.49524e-12
8.82839e-07
-2.44007e-27
-3.74634e-23
1.03958e-17
4.00435e-12
8.80718e-07
-2.55839e-27
-3.92544e-23
1.03201e-17
3.99932e-12
8.84316e-07
-2.56296e-27
-3.93695e-23
1.03086e-17
3.99719e-12
8.84113e-07
-2.57814e-27
-3.98467e-23
1.0238e-17
3.98378e-12
8.82891e-07
-2.57898e-27
-3.98921e-23
1.02287e-17
3.98187e-12
8.82667e-07
-2.58132e-27
-4.00534e-23
1.01916e-17
3.97425e-12
8.81817e-07
-2.58157e-27
-4.00737e-23
1.01867e-17
3.97324e-12
8.81697e-07
-2.58222e-27
-4.01369e-23
1.01705e-17
3.96987e-12
8.81315e-07
-2.5823e-27
-4.01446e-23
1.01685e-17
3.96946e-12
8.81266e-07
-2.58245e-27
-4.01616e-23
1.0164e-17
3.96851e-12
8.81159e-07
-2.58245e-27
-4.01616e-23
1.0164e-17
3.96851e-12
8.81159e-07
-2.5823e-27
-4.01446e-23
1.01685e-17
3.96946e-12
8.81266e-07
-2.58222e-27
-4.01369e-23
1.01705e-17
3.96987e-12
8.81315e-07
-2.58157e-27
-4.00737e-23
1.01867e-17
3.97324e-12
8.81697e-07
-2.58132e-27
-4.00534e-23
1.01916e-17
3.97425e-12
8.81817e-07
-2.57898e-27
-3.98921e-23
1.02287e-17
3.98187e-12
8.82667e-07
-2.57814e-27
-3.98467e-23
1.0238e-17
3.98378e-12
8.82891e-07
-2.56296e-27
-3.93695e-23
1.03086e-17
3.99719e-12
8.84113e-07
-2.55839e-27
-3.92543e-23
1.03201e-17
3.99932e-12
8.84316e-07
-2.44007e-27
-3.74634e-23
1.03958e-17
4.00435e-12
8.80718e-07
-2.41822e-27
-2.85816e-23
1.3241e-17
4.51154e-12
8.78644e-07
-2.53713e-27
-3.05458e-23
1.31301e-17
4.50423e-12
8.82296e-07
-2.54174e-27
-3.06725e-23
1.31158e-17
4.50183e-12
8.82096e-07
-2.55716e-27
-3.12227e-23
1.30283e-17
4.48672e-12
8.80892e-07
-2.55802e-27
-3.12767e-23
1.3017e-17
4.48458e-12
8.8067e-07
-2.56048e-27
-3.14739e-23
1.29713e-17
4.47605e-12
8.79829e-07
-2.56074e-27
-3.14987e-23
1.29654e-17
4.47491e-12
8.7971e-07
-2.56144e-27
-3.15776e-23
1.29454e-17
4.47113e-12
8.79332e-07
-2.56152e-27
-3.15872e-23
1.2943e-17
4.47067e-12
8.79283e-07
-2.56169e-27
-3.16085e-23
1.29374e-17
4.46962e-12
8.79177e-07
-2.56169e-27
-3.16085e-23
1.29374e-17
4.46962e-12
8.79177e-07
-2.56152e-27
-3.15872e-23
1.2943e-17
4.47067e-12
8.79283e-07
-2.56144e-27
-3.15776e-23
1.29454e-17
4.47113e-12
8.79332e-07
-2.56074e-27
-3.14987e-23
1.29654e-17
4.47491e-12
8.7971e-07
-2.56048e-27
-3.14739e-23
1.29713e-17
4.47605e-12
8.79829e-07
-2.55802e-27
-3.12767e-23
1.3017e-17
4.48458e-12
8.8067e-07
-2.55716e-27
-3.12226e-23
1.30283e-17
4.48672e-12
8.80892e-07
-2.54174e-27
-3.06725e-23
1.31158e-17
4.50183e-12
8.82096e-07
-2.53713e-27
-3.05458e-23
1.31301e-17
4.50423e-12
8.82296e-07
-2.41822e-27
-2.85816e-23
1.3241e-17
4.51154e-12
8.78644e-07
-2.3894e-27
-1.77644e-23
1.64023e-17
5.01673e-12
8.76614e-07
-2.50911e-27
-1.99456e-23
1.62511e-17
5.00715e-12
8.80317e-07
-2.51378e-27
-2.00864e-23
1.62339e-17
5.00449e-12
8.80121e-07
-2.5295e-27
-2.07253e-23
1.61277e-17
4.9877e-12
8.78935e-07
-2.53039e-27
-2.07898e-23
1.61141e-17
4.98534e-12
8.78715e-07
-2.533e-27
-2.10307e-23
1.6059e-17
4.97589e-12
8.77883e-07
-2.53328e-27
-2.1061e-23
1.60518e-17
4.97464e-12
8.77764e-07
-2.53405e-27
-2.11589e-23
1.60277e-17
4.97046e-12
8.7739e-07
-2.53414e-27
-2.11707e-23
1.60249e-17
4.96996e-12
8.77342e-07
-2.53432e-27
-2.11974e-23
1.60181e-17
4.96879e-12
8.77237e-07
-2.53432e-27
-2.11974e-23
1.60181e-17
4.96879e-12
8.77237e-07
-2.53414e-27
-2.11707e-23
1.60249e-17
4.96996e-12
8.77342e-07
-2.53405e-27
-2.11589e-23
1.60277e-17
4.97046e-12
8.7739e-07
-2.53328e-27
-2.1061e-23
1.60518e-17
4.97464e-12
8.77764e-07
-2.533e-27
-2.10307e-23
1.6059e-17
4.97589e-12
8.77883e-07
-2.53039e-27
-2.07898e-23
1.61141e-17
4.98534e-12
8.78715e-07
-2.5295e-27
-2.07253e-23
1.61277e-17
4.9877e-12
8.78935e-07
-2.51378e-27
-2.00864e-23
1.62339e-17
5.00449e-12
8.80121e-07
-2.50911e-27
-1.99456e-23
1.62511e-17
5.00715e-12
8.80317e-07
-2.3894e-27
-1.77644e-23
1.64023e-17
5.01673e-12
8.76614e-07
-2.35223e-27
-4.8203e-24
1.98777e-17
5.51982e-12
8.74624e-07
-2.473e-27
-7.26753e-24
1.96815e-17
5.50801e-12
8.78377e-07
-2.47774e-27
-7.42519e-24
1.96611e-17
5.50509e-12
8.78184e-07
-2.49386e-27
-8.17013e-24
1.95344e-17
5.48665e-12
8.77015e-07
-2.4948e-27
-8.2471e-24
1.95183e-17
5.48406e-12
8.76797e-07
-2.4976e-27
-8.54e-24
1.94528e-17
5.47372e-12
8.75973e-07
-2.4979e-27
-8.57684e-24
1.94444e-17
5.47235e-12
8.75856e-07
-2.49875e-27
-8.69751e-24
1.94157e-17
5.46777e-12
8.75485e-07
-2.49885e-27
-8.71194e-24
1.94123e-17
5.46722e-12
8.75438e-07
-2.49905e-27
-8.74497e-24
1.94043e-17
5.46594e-12
8.75334e-07
-2.49905e-27
-8.74496e-24
1.94043e-17
5.46594e-12
8.75334e-07
-2.49885e-27
-8.71194e-24
1.94123e-17
5.46722e-12
8.75438e-07
-2.49875e-27
-8.69751e-24
1.94157e-17
5.46777e-12
8.75485e-07
-2.4979e-27
-8.57684e-24
1.94444e-17
5.47235e-12
8.75856e-07
-2.4976e-27
-8.54e-24
1.94528e-17
5.47372e-12
8.75973e-07
-2.4948e-27
-8.2471e-24
1.95183e-17
5.48406e-12
8.76797e-07
-2.49386e-27
-8.17013e-24
1.95344e-17
5.48665e-12
8.77015e-07
-2.47774e-27
-7.42518e-24
1.96611e-17
5.50509e-12
8.78184e-07
-2.473e-27
-7.26751e-24
1.96815e-17
5.50801e-12
8.78377e-07
-2.35223e-27
-4.82031e-24
1.98777e-17
5.51982e-12
8.74624e-07
-2.3052e-27
1.04409e-23
2.36654e-17
6.02073e-12
8.72665e-07
-2.42735e-27
7.67344e-24
2.34194e-17
6.0067e-12
8.76467e-07
-2.43217e-27
7.49602e-24
2.33955e-17
6.00353e-12
8.76277e-07
-2.44879e-27
6.62624e-24
2.32466e-17
5.98346e-12
8.75125e-07
-2.44979e-27
6.53466e-24
2.32277e-17
5.98066e-12
8.7491e-07
-2.45283e-27
6.18055e-24
2.3151e-17
5.96942e-12
8.74093e-07
-2.45316e-27
6.13607e-24
2.31412e-17
5.96794e-12
8.73977e-07
-2.45412e-27
5.98868e-24
2.31076e-17
5.96297e-12
8.73609e-07
-2.45423e-27
5.97116e-24
2.31036e-17
5.96237e-12
8.73563e-07
-2.45447e-27
5.93066e-24
2.30942e-17
5.96098e-12
8.7346e-07
-2.45447e-27
5.93067e-24
2.30942e-17
5.96098e-12
8.7346e-07
-2.45423e-27
5.97116e-24
2.31036e-17
5.96237e-12
8.73563e-07
-2.45412e-27
5.98868e-24
2.31076e-17
5.96297e-12
8.73609e-07
-2.45316e-27
6.13607e-24
2.31412e-17
5.96794e-12
8.73977e-07
-2.45283e-27
6.18054e-24
2.3151e-17
5.96942e-12
8.74093e-07
-2.44979e-27
6.53467e-24
2.32277e-17
5.98066e-12
8.7491e-07
-2.44879e-27
6.62625e-24
2.32466e-17
5.98346e-12
8.75125e-07
-2.43217e-27
7.49603e-24
2.33955e-17
6.00353e-12
8.76277e-07
-2.42735e-27
7.67346e-24
2.34194e-17
6.0067e-12
8.76467e-07
-2.3052e-27
1.04409e-23
2.36654e-17
6.02073e-12
8.72665e-07
-2.24669e-27
2.82081e-23
2.77634e-17
6.51935e-12
8.70706e-07
-2.37058e-27
2.50609e-23
2.74627e-17
6.50313e-12
8.74556e-07
-2.37551e-27
2.48606e-23
2.7435e-17
6.49971e-12
8.74369e-07
-2.39276e-27
2.38458e-23
2.72622e-17
6.47804e-12
8.73235e-07
-2.39382e-27
2.37373e-23
2.72405e-17
6.47502e-12
8.73021e-07
-2.39717e-27
2.33121e-23
2.71516e-17
6.46291e-12
8.72212e-07
-2.39753e-27
2.32588e-23
2.71402e-17
6.46131e-12
8.72097e-07
-2.39862e-27
2.30804e-23
2.71014e-17
6.45596e-12
8.71733e-07
-2.39875e-27
2.30593e-23
2.70968e-17
6.45531e-12
8.71687e-07
-2.39902e-27
2.30101e-23
2.70859e-17
6.45381e-12
8.71585e-07
-2.39902e-27
2.30101e-23
2.70859e-17
6.45381e-12
8.71585e-07
-2.39875e-27
2.30593e-23
2.70968e-17
6.45531e-12
8.71687e-07
-2.39862e-27
2.30804e-23
2.71014e-17
6.45596e-12
8.71733e-07
-2.39753e-27
2.32588e-23
2.71402e-17
6.46131e-12
8.72097e-07
-2.39717e-27
2.33121e-23
2.71516e-17
6.46291e-12
8.72212e-07
-2.39382e-27
2.37373e-23
2.72405e-17
6.47502e-12
8.73021e-07
-2.39275e-27
2.38458e-23
2.72622e-17
6.47804e-12
8.73235e-07
-2.37551e-27
2.48606e-23
2.7435e-17
6.49971e-12
8.74369e-07
-2.37058e-27
2.50609e-23
2.74627e-17
6.50313e-12
8.74556e-07
-2.24669e-27
2.82081e-23
2.77634e-17
6.51935e-12
8.70706e-07
3.62968e-05
2.23636e-06
-6.32156e-08
-1.43267e-09
-3.40186e-12
3.60245e-15
5.18344e-15
5.19929e-15
5.20272e-15
5.20329e-15
5.20365e-15
5.20597e-15
5.21801e-15
5.23284e-15
5.3563e-15
5.46309e-15
6.59081e-15
7.20672e-15
2.29205e-14
2.68119e-14
4.30973e-05
3.10372e-06
-4.70786e-08
-1.44074e-09
-3.69213e-12
3.3903e-15
5.1829e-15
5.19914e-15
5.20263e-15
5.2032e-15
5.20337e-15
5.20525e-15
5.21754e-15
5.23262e-15
5.35816e-15
5.46619e-15
6.60839e-15
7.22834e-15
2.31213e-14
2.70569e-14
4.31746e-05
3.11237e-06
-4.69021e-08
-1.43976e-09
-3.69154e-12
3.38959e-15
5.1829e-15
5.19914e-15
5.20264e-15
5.20321e-15
5.20337e-15
5.20529e-15
5.21759e-15
5.23268e-15
5.35826e-15
5.46632e-15
6.60874e-15
7.22871e-15
2.31232e-14
2.70589e-14
4.34311e-05
3.13717e-06
-4.62625e-08
-1.43095e-09
-3.66911e-12
3.39839e-15
5.18288e-15
5.19915e-15
5.20265e-15
5.20322e-15
5.20342e-15
5.20549e-15
5.21782e-15
5.23293e-15
5.35864e-15
5.46677e-15
6.60987e-15
7.22992e-15
2.31294e-14
2.70643e-14
4.33995e-05
3.13299e-06
-4.63391e-08
-1.43069e-09
-3.66689e-12
3.39967e-15
5.18288e-15
5.19915e-15
5.20265e-15
5.20322e-15
5.20342e-15
5.2055e-15
5.21782e-15
5.23293e-15
5.35866e-15
5.46678e-15
6.6099e-15
7.22996e-15
2.31295e-14
2.70644e-14
4.32983e-05
3.11797e-06
-4.65938e-08
-1.42924e-09
-3.65771e-12
3.40478e-15
5.18288e-15
5.19915e-15
5.20265e-15
5.20322e-15
5.20342e-15
5.20551e-15
5.21784e-15
5.23295e-15
5.35868e-15
5.46681e-15
6.60996e-15
7.23001e-15
2.31297e-14
2.70646e-14
4.3279e-05
3.11544e-06
-4.66424e-08
-1.4292e-09
-3.6568e-12
3.40536e-15
5.18288e-15
5.19915e-15
5.20265e-15
5.20322e-15
5.20343e-15
5.20551e-15
5.21784e-15
5.23295e-15
5.35868e-15
5.46681e-15
6.60996e-15
7.23002e-15
2.31297e-14
2.70646e-14
4.3231e-05
3.10843e-06
-4.67704e-08
-1.42887e-09
-3.65369e-12
3.40714e-15
5.18288e-15
5.19915e-15
5.20265e-15
5.20322e-15
5.20343e-15
5.20551e-15
5.21784e-15
5.23295e-15
5.35868e-15
5.46681e-15
6.60997e-15
7.23002e-15
2.31297e-14
2.70646e-14
4.32237e-05
3.10745e-06
-4.67897e-08
-1.42887e-09
-3.65339e-12
3.40733e-15
5.18288e-15
5.19915e-15
5.20265e-15
5.20322e-15
5.20343e-15
5.20551e-15
5.21784e-15
5.23295e-15
5.35868e-15
5.46681e-15
6.60997e-15
7.23002e-15
2.31297e-14
2.70646e-14
4.32111e-05
3.1056e-06
-4.68245e-08
-1.4288e-09
-3.65266e-12
3.40775e-15
5.18288e-15
5.19915e-15
5.20265e-15
5.20322e-15
5.20342e-15
5.20551e-15
5.21784e-15
5.23295e-15
5.35868e-15
5.46681e-15
6.60996e-15
7.23001e-15
2.31297e-14
2.70646e-14
4.32111e-05
3.1056e-06
-4.68245e-08
-1.4288e-09
-3.65266e-12
3.40775e-15
5.18288e-15
5.19915e-15
5.20265e-15
5.20322e-15
5.20342e-15
5.20551e-15
5.21784e-15
5.23295e-15
5.35868e-15
5.46681e-15
6.60996e-15
7.23001e-15
2.31297e-14
2.70646e-14
4.32237e-05
3.10745e-06
-4.67897e-08
-1.42887e-09
-3.65339e-12
3.40733e-15
5.18288e-15
5.19915e-15
5.20265e-15
5.20322e-15
5.20343e-15
5.20551e-15
5.21784e-15
5.23295e-15
5.35868e-15
5.46681e-15
6.60997e-15
7.23002e-15
2.31297e-14
2.70646e-14
4.3231e-05
3.10843e-06
-4.67704e-08
-1.42887e-09
-3.65369e-12
3.40714e-15
5.18288e-15
5.19915e-15
5.20265e-15
5.20322e-15
5.20343e-15
5.20551e-15
5.21784e-15
5.23295e-15
5.35868e-15
5.46681e-15
6.60997e-15
7.23002e-15
2.31297e-14
2.70646e-14
4.3279e-05
3.11544e-06
-4.66424e-08
-1.4292e-09
-3.6568e-12
3.40536e-15
5.18288e-15
5.19915e-15
5.20265e-15
5.20322e-15
5.20343e-15
5.20551e-15
5.21784e-15
5.23295e-15
5.35868e-15
5.46681e-15
6.60996e-15
7.23002e-15
2.31297e-14
2.70646e-14
4.32983e-05
3.11797e-06
-4.65938e-08
-1.42924e-09
-3.65771e-12
3.40478e-15
5.18288e-15
5.19915e-15
5.20265e-15
5.20322e-15
5.20342e-15
5.20551e-15
5.21784e-15
5.23295e-15
5.35868e-15
5.46681e-15
6.60996e-15
7.23001e-15
2.31297e-14
2.70646e-14
4.33995e-05
3.13299e-06
-4.63391e-08
-1.43069e-09
-3.66689e-12
3.39967e-15
5.18288e-15
5.19915e-15
5.20265e-15
5.20322e-15
5.20342e-15
5.2055e-15
5.21782e-15
5.23293e-15
5.35866e-15
5.46678e-15
6.6099e-15
7.22996e-15
2.31295e-14
2.70644e-14
4.34311e-05
3.13717e-06
-4.62625e-08
-1.43095e-09
-3.66911e-12
3.39839e-15
5.18288e-15
5.19915e-15
5.20265e-15
5.20322e-15
5.20342e-15
5.20549e-15
5.21782e-15
5.23293e-15
5.35864e-15
5.46677e-15
6.60987e-15
7.22992e-15
2.31294e-14
2.70643e-14
4.31746e-05
3.11237e-06
-4.69021e-08
-1.43976e-09
-3.69154e-12
3.38959e-15
5.1829e-15
5.19914e-15
5.20264e-15
5.20321e-15
5.20337e-15
5.20529e-15
5.21759e-15
5.23268e-15
5.35826e-15
5.46632e-15
6.60874e-15
7.22871e-15
2.31232e-14
2.70589e-14
4.30973e-05
3.10372e-06
-4.70786e-08
-1.44074e-09
-3.69213e-12
3.3903e-15
5.1829e-15
5.19914e-15
5.20263e-15
5.2032e-15
5.20337e-15
5.20525e-15
5.21754e-15
5.23262e-15
5.35816e-15
5.46619e-15