/*--------------------------------*- C++ -*----------------------------------*\
  =========                 |
  \\      /  F ield         | OpenFOAM: The Open Source CFD Toolbox
   \\    /   O peration     | Website:  https://openfoam.org
    \\  /    A nd           | Version:  8
     \\/     M anipulation  |
\*---------------------------------------------------------------------------*/
FoamFile
{
    version     2.0;
    format      ascii;
    class       volScalarField;
    location    "1.3";
    object      p;
}
// * * * * * * * * * * * * * * * * * * * * * * * * * * * * * * * * * * * * * //

dimensions      [0 2 -2 0 0 0 0];

internalField   nonuniform List<scalar> 
180000
(
0.0010813
0.00100854
0.00106061
0.000892125
0.000986489
0.00106675
0.000994321
0.00104605
0.000879158
0.000972112
0.00106627
0.00099386
0.00104556
0.000878763
0.000971656
0.00106318
0.000990898
0.00104247
0.000876189
0.000968759
0.00106299
0.000990718
0.00104228
0.000876034
0.00096858
0.00106211
0.000989872
0.00104139
0.000875298
0.000967744
0.00106205
0.00098981
0.00104133
0.000875245
0.000967682
0.00106179
0.000989566
0.00104107
0.000875031
0.000967439
0.00106177
0.000989548
0.00104105
0.000875015
0.000967421
0.00106172
0.000989496
0.001041
0.000874969
0.000967369
0.00106172
0.000989496
0.001041
0.000874969
0.000967369
0.00106177
0.000989548
0.00104105
0.000875015
0.000967421
0.00106179
0.000989566
0.00104107
0.000875031
0.000967439
0.00106205
0.00098981
0.00104133
0.000875245
0.000967682
0.00106211
0.000989872
0.00104139
0.000875298
0.000967744
0.00106299
0.000990718
0.00104228
0.000876034
0.00096858
0.00106318
0.000990898
0.00104247
0.000876189
0.000968759
0.00106627
0.00099386
0.00104556
0.000878763
0.000971656
0.00106675
0.000994321
0.00104605
0.000879158
0.000972112
0.0010813
0.00100854
0.00106061
0.000892125
0.000986489
0.000794052
0.000774476
0.000789519
0.00073024
0.000767928
0.000790652
0.000769987
0.00078578
0.000724508
0.000763028
0.000790536
0.000769839
0.000785653
0.000724331
0.00076287
0.000789756
0.000768845
0.0007848
0.00072314
0.000761824
0.000789709
0.000768785
0.000784748
0.000723069
0.00076176
0.00078948
0.000768496
0.000784496
0.000722725
0.000761453
0.000789464
0.000768476
0.000784478
0.0007227
0.000761431
0.000789396
0.000768391
0.000784404
0.0007226
0.000761341
0.000789392
0.000768385
0.000784399
0.000722592
0.000761334
0.000789377
0.000768367
0.000784383
0.000722571
0.000761315
0.000789377
0.000768367
0.000784383
0.000722571
0.000761315
0.000789392
0.000768385
0.000784399
0.000722592
0.000761334
0.000789396
0.000768391
0.000784404
0.0007226
0.000761341
0.000789464
0.000768476
0.000784478
0.0007227
0.000761431
0.00078948
0.000768496
0.000784496
0.000722725
0.000761453
0.000789709
0.000768785
0.000784748
0.000723069
0.00076176
0.000789756
0.000768845
0.0007848
0.00072314
0.000761824
0.000790536
0.000769839
0.000785653
0.000724331
0.00076287
0.000790652
0.000769987
0.00078578
0.000724508
0.000763028
0.000794052
0.000774476
0.000789519
0.00073024
0.000767928
0.00058165
0.000562108
0.000577312
0.000523506
0.000559365
0.000578071
0.000558004
0.000573556
0.000518946
0.000555028
0.000577951
0.00055787
0.000573431
0.000518806
0.000554889
0.000577123
0.000556945
0.000572563
0.000517832
0.000553942
0.000577073
0.000556891
0.000572511
0.000517775
0.000553885
0.00057683
0.000556621
0.000572255
0.000517492
0.000553606
0.000576813
0.000556602
0.000572237
0.000517472
0.000553586
0.000576741
0.000556523
0.000572162
0.000517389
0.000553504
0.000576736
0.000556518
0.000572156
0.000517383
0.000553498
0.000576721
0.000556501
0.00057214
0.000517365
0.00055348
0.000576721
0.000556501
0.00057214
0.000517365
0.00055348
0.000576736
0.000556518
0.000572156
0.000517383
0.000553498
0.000576741
0.000556523
0.000572162
0.000517389
0.000553504
0.000576813
0.000556602
0.000572237
0.000517472
0.000553586
0.00057683
0.000556621
0.000572255
0.000517492
0.000553606
0.000577073
0.000556891
0.000572511
0.000517775
0.000553885
0.000577123
0.000556945
0.000572563
0.000517832
0.000553942
0.000577951
0.00055787
0.000573431
0.000518806
0.000554889
0.000578071
0.000558004
0.000573556
0.000518946
0.000555028
0.00058165
0.000562108
0.000577312
0.000523506
0.000559365
0.000566309
0.000537956
0.0005597
0.000488644
0.000536565
0.000560842
0.000532386
0.000554174
0.000483246
0.000530884
0.000560658
0.000532205
0.000553989
0.00048308
0.000530701
0.000559415
0.000530958
0.000552729
0.00048192
0.000529461
0.00055934
0.000530884
0.000552654
0.000481852
0.000529386
0.000558978
0.000530522
0.000552285
0.000481516
0.000529022
0.000558952
0.000530497
0.000552258
0.000481492
0.000528996
0.000558846
0.000530391
0.00055215
0.000481393
0.000528889
0.000558839
0.000530383
0.000552143
0.000481386
0.000528881
0.000558816
0.000530361
0.000552119
0.000481365
0.000528858
0.000558816
0.000530361
0.000552119
0.000481365
0.000528858
0.000558839
0.000530383
0.000552143
0.000481386
0.000528881
0.000558846
0.000530391
0.00055215
0.000481393
0.000528889
0.000558952
0.000530497
0.000552258
0.000481492
0.000528996
0.000558978
0.000530522
0.000552285
0.000481516
0.000529022
0.00055934
0.000530884
0.000552654
0.000481852
0.000529386
0.000559415
0.000530958
0.000552729
0.00048192
0.000529461
0.000560658
0.000532205
0.000553989
0.00048308
0.000530701
0.000560842
0.000532386
0.000554174
0.000483246
0.000530884
0.000566309
0.000537956
0.0005597
0.000488644
0.000536565
0.000593806
0.000564029
0.000587234
0.000511678
0.000565645
0.000588099
0.000558195
0.000581462
0.000506
0.00055973
0.000587906
0.000558003
0.000581267
0.000505823
0.000559537
0.000586585
0.000556673
0.000579928
0.000504582
0.000558217
0.000586506
0.000556595
0.000579848
0.000504509
0.000558137
0.00058612
0.000556208
0.000579455
0.000504149
0.00055775
0.000586093
0.000556181
0.000579427
0.000504123
0.000557721
0.00058598
0.000556068
0.000579311
0.000504017
0.000557607
0.000585972
0.00055606
0.000579303
0.000504009
0.000557599
0.000585947
0.000556035
0.000579278
0.000503986
0.000557574
0.000585947
0.000556035
0.000579278
0.000503986
0.000557574
0.000585972
0.00055606
0.000579303
0.000504009
0.000557599
0.00058598
0.000556068
0.000579311
0.000504017
0.000557607
0.000586093
0.000556181
0.000579427
0.000504123
0.000557721
0.00058612
0.000556208
0.000579455
0.000504149
0.00055775
0.000586506
0.000556595
0.000579848
0.000504509
0.000558137
0.000586585
0.000556673
0.000579928
0.000504582
0.000558217
0.000587906
0.000558003
0.000581267
0.000505823
0.000559537
0.000588099
0.000558195
0.000581462
0.000506
0.00055973
0.000593806
0.000564029
0.000587234
0.000511678
0.000565645
0.000604149
0.000575795
0.000598435
0.000524776
0.000581552
0.000598786
0.000570237
0.000592993
0.000519269
0.000575935
0.000598603
0.000570052
0.000592807
0.000519097
0.000575749
0.000597328
0.000568754
0.000591511
0.000517864
0.000574457
0.000597253
0.000568678
0.000591434
0.000517792
0.000574379
0.000596878
0.000568299
0.000591052
0.000517432
0.000573998
0.000596852
0.000568272
0.000591024
0.000517407
0.000573971
0.000596742
0.00056816
0.000590912
0.0005173
0.000573858
0.000596734
0.000568153
0.000590904
0.000517293
0.00057385
0.00059671
0.000568129
0.000590879
0.00051727
0.000573826
0.00059671
0.000568129
0.000590879
0.00051727
0.000573826
0.000596734
0.000568153
0.000590904
0.000517293
0.00057385
0.000596742
0.00056816
0.000590912
0.0005173
0.000573858
0.000596852
0.000568272
0.000591024
0.000517407
0.000573971
0.000596878
0.000568299
0.000591052
0.000517432
0.000573998
0.000597253
0.000568678
0.000591434
0.000517792
0.000574379
0.000597328
0.000568754
0.000591511
0.000517864
0.000574457
0.000598603
0.000570052
0.000592807
0.000519097
0.000575749
0.000598786
0.000570237
0.000592993
0.000519269
0.000575935
0.000604149
0.000575795
0.000598435
0.000524776
0.000581552
0.000602061
0.000574713
0.000597052
0.000525065
0.00058485
0.000596935
0.000569384
0.000591848
0.000519757
0.000579491
0.000596759
0.000569206
0.00059167
0.00051959
0.000579312
0.000595511
0.000567931
0.000590401
0.000518373
0.000578042
0.000595438
0.000567857
0.000590326
0.000518302
0.000577966
0.00059507
0.000567483
0.00058995
0.000517946
0.00057759
0.000595044
0.000567457
0.000589923
0.000517921
0.000577563
0.000594935
0.000567347
0.000589812
0.000517815
0.000577452
0.000594927
0.000567339
0.000589804
0.000517808
0.000577444
0.000594904
0.000567315
0.00058978
0.000517785
0.00057742
0.000594904
0.000567315
0.00058978
0.000517785
0.00057742
0.000594927
0.000567339
0.000589804
0.000517808
0.000577444
0.000594935
0.000567347
0.000589812
0.000517815
0.000577452
0.000595044
0.000567457
0.000589923
0.000517921
0.000577563
0.00059507
0.000567483
0.00058995
0.000517946
0.00057759
0.000595438
0.000567857
0.000590326
0.000518302
0.000577966
0.000595511
0.000567931
0.000590401
0.000518373
0.000578042
0.000596759
0.000569206
0.00059167
0.00051959
0.000579312
0.000596935
0.000569384
0.000591848
0.000519757
0.000579491
0.000602061
0.000574713
0.000597052
0.000525065
0.00058485
0.000598837
0.000571832
0.000594324
0.000522826
0.000586063
0.000593807
0.000566614
0.000589224
0.000517639
0.000580843
0.000593633
0.000566439
0.000589048
0.000517475
0.000580667
0.000592384
0.000565166
0.000587779
0.00051626
0.000579398
0.000592311
0.000565092
0.000587704
0.00051619
0.000579322
0.000591941
0.000564717
0.000587327
0.000515833
0.000578945
0.000591915
0.000564691
0.0005873
0.000515808
0.000578918
0.000591805
0.00056458
0.000587188
0.000515702
0.000578806
0.000591797
0.000564572
0.00058718
0.000515694
0.000578798
0.000591774
0.000564548
0.000587156
0.000515671
0.000578774
0.000591774
0.000564548
0.000587156
0.000515671
0.000578774
0.000591797
0.000564572
0.00058718
0.000515694
0.000578798
0.000591805
0.00056458
0.000587188
0.000515702
0.000578806
0.000591915
0.000564691
0.0005873
0.000515808
0.000578918
0.000591941
0.000564717
0.000587327
0.000515833
0.000578945
0.000592311
0.000565092
0.000587704
0.00051619
0.000579322
0.000592384
0.000565166
0.000587779
0.00051626
0.000579398
0.000593633
0.000566439
0.000589048
0.000517475
0.000580667
0.000593807
0.000566614
0.000589224
0.000517639
0.000580843
0.000598837
0.000571832
0.000594324
0.000522826
0.000586063
0.000597374
0.00057057
0.000593306
0.000522029
0.00058837
0.000592411
0.000565432
0.000588282
0.000516931
0.000583248
0.000592239
0.000565259
0.000588108
0.000516768
0.000583074
0.000590983
0.000563981
0.000586833
0.00051555
0.000581799
0.00059091
0.000563908
0.000586758
0.00051548
0.000581724
0.000590536
0.00056353
0.000586378
0.000515121
0.000581344
0.00059051
0.000563504
0.000586351
0.000515096
0.000581317
0.000590399
0.000563391
0.000586237
0.000514989
0.000581204
0.000590392
0.000563384
0.000586229
0.000514981
0.000581196
0.000590368
0.000563359
0.000586205
0.000514958
0.000581171
0.000590368
0.000563359
0.000586205
0.000514958
0.000581171
0.000590392
0.000563384
0.000586229
0.000514981
0.000581196
0.000590399
0.000563391
0.000586237
0.000514989
0.000581204
0.00059051
0.000563504
0.000586351
0.000515096
0.000581317
0.000590536
0.00056353
0.000586378
0.000515121
0.000581344
0.00059091
0.000563908
0.000586758
0.00051548
0.000581724
0.000590983
0.000563981
0.000586833
0.00051555
0.000581799
0.000592239
0.000565259
0.000588108
0.000516768
0.000583074
0.000592411
0.000565432
0.000588282
0.000516931
0.000583248
0.000597374
0.00057057
0.000593306
0.000522029
0.00058837
0.000596713
0.000570175
0.000593101
0.000522236
0.000590912
0.000591833
0.000565127
0.000588165
0.000517229
0.000585882
0.000591663
0.000564956
0.000587993
0.000517068
0.000585709
0.000590404
0.000563677
0.000586716
0.000515847
0.000584431
0.000590331
0.000563604
0.000586642
0.000515777
0.000584356
0.000589955
0.000563224
0.000586259
0.000515416
0.000583973
0.000589929
0.000563198
0.000586232
0.000515391
0.000583946
0.000589817
0.000563084
0.000586117
0.000515283
0.000583831
0.00058981
0.000563077
0.000586109
0.000515275
0.000583823
0.000589785
0.000563052
0.000586085
0.000515251
0.000583798
0.000589785
0.000563052
0.000586085
0.000515251
0.000583798
0.00058981
0.000563077
0.000586109
0.000515275
0.000583823
0.000589817
0.000563084
0.000586117
0.000515283
0.000583831
0.000589929
0.000563198
0.000586232
0.000515391
0.000583946
0.000589955
0.000563224
0.000586259
0.000515416
0.000583973
0.000590331
0.000563604
0.000586642
0.000515777
0.000584356
0.000590404
0.000563677
0.000586716
0.000515847
0.000584431
0.000591663
0.000564956
0.000587993
0.000517068
0.000585709
0.000591833
0.000565127
0.000588165
0.000517229
0.000585882
0.000596713
0.000570175
0.000593101
0.000522236
0.000590912
0.000596035
0.000569802
0.000592876
0.000522592
0.000592593
0.000591246
0.000564852
0.000588036
0.000517678
0.000587639
0.000591078
0.000564683
0.000587866
0.000517519
0.000587468
0.000589819
0.000563404
0.00058659
0.000516297
0.000586185
0.000589747
0.000563331
0.000586516
0.000516228
0.00058611
0.000589369
0.00056295
0.000586131
0.000515865
0.000585724
0.000589343
0.000562924
0.000586105
0.00051584
0.000585697
0.00058923
0.00056281
0.000585989
0.000515731
0.000585581
0.000589222
0.000562802
0.000585981
0.000515723
0.000585573
0.000589198
0.000562777
0.000585956
0.000515699
0.000585548
0.000589198
0.000562777
0.000585956
0.000515699
0.000585548
0.000589222
0.000562802
0.000585981
0.000515723
0.000585573
0.00058923
0.00056281
0.000585989
0.000515731
0.000585581
0.000589343
0.000562924
0.000586105
0.00051584
0.000585697
0.000589369
0.00056295
0.000586131
0.000515865
0.000585724
0.000589747
0.000563331
0.000586516
0.000516228
0.00058611
0.000589819
0.000563404
0.00058659
0.000516297
0.000586185
0.000591078
0.000564683
0.000587866
0.000517519
0.000587468
0.000591246
0.000564852
0.000588036
0.000517678
0.000587639
0.000596035
0.000569802
0.000592876
0.000522592
0.000592593
0.000595229
0.000569297
0.000592507
0.000522823
0.000590929
0.000590529
0.000564442
0.000587761
0.000518001
0.000586059
0.000590363
0.000564276
0.000587594
0.000517844
0.000585889
0.000589105
0.000562997
0.000586319
0.000516622
0.000584606
0.000589033
0.000562925
0.000586245
0.000516553
0.000584532
0.000588654
0.000562542
0.000585859
0.000516188
0.000584144
0.000588628
0.000562516
0.000585833
0.000516163
0.000584117
0.000588514
0.000562402
0.000585716
0.000516053
0.000584001
0.000588506
0.000562394
0.000585708
0.000516046
0.000583993
0.000588482
0.000562369
0.000585683
0.000516022
0.000583967
0.000588482
0.000562369
0.000585683
0.000516022
0.000583967
0.000588506
0.000562394
0.000585708
0.000516046
0.000583993
0.000588514
0.000562402
0.000585716
0.000516053
0.000584001
0.000588628
0.000562516
0.000585833
0.000516163
0.000584117
0.000588654
0.000562542
0.000585859
0.000516188
0.000584144
0.000589033
0.000562925
0.000586245
0.000516553
0.000584532
0.000589105
0.000562997
0.000586319
0.000516622
0.000584606
0.000590363
0.000564276
0.000587594
0.000517844
0.000585889
0.000590529
0.000564442
0.000587761
0.000518001
0.000586059
0.000595229
0.000569297
0.000592507
0.000522823
0.000590929
0.0005944
0.000568753
0.000592096
0.000522913
0.000588316
0.000589786
0.000563989
0.000587441
0.000518182
0.000583531
0.000589622
0.000563825
0.000587276
0.000518027
0.000583364
0.000588364
0.000562548
0.000586002
0.000516805
0.000582083
0.000588293
0.000562477
0.000585928
0.000516736
0.000582009
0.000587912
0.000562093
0.000585541
0.00051637
0.00058162
0.000587886
0.000562067
0.000585514
0.000516345
0.000581593
0.000587772
0.000561951
0.000585397
0.000516234
0.000581476
0.000587764
0.000561943
0.000585389
0.000516227
0.000581467
0.000587739
0.000561918
0.000585364
0.000516203
0.000581442
0.000587739
0.000561918
0.000585364
0.000516203
0.000581442
0.000587764
0.000561943
0.000585389
0.000516227
0.000581467
0.000587772
0.000561951
0.000585397
0.000516234
0.000581476
0.000587886
0.000562067
0.000585514
0.000516345
0.000581593
0.000587912
0.000562093
0.000585541
0.00051637
0.00058162
0.000588293
0.000562477
0.000585928
0.000516736
0.000582009
0.000588364
0.000562548
0.000586002
0.000516805
0.000582083
0.000589622
0.000563825
0.000587276
0.000518027
0.000583364
0.000589786
0.000563989
0.000587441
0.000518182
0.000583531
0.0005944
0.000568753
0.000592096
0.000522913
0.000588316
0.000593602
0.000568228
0.000591699
0.00052291
0.000585985
0.000589071
0.000563554
0.000587132
0.000518267
0.000581282
0.000588909
0.000563393
0.000586969
0.000518115
0.000581118
0.000587652
0.000562117
0.000585696
0.000516893
0.000579839
0.000587581
0.000562046
0.000585623
0.000516825
0.000579765
0.000587198
0.00056166
0.000585234
0.000516457
0.000579375
0.000587173
0.000561634
0.000585208
0.000516432
0.000579348
0.000587057
0.000561518
0.00058509
0.000516321
0.00057923
0.000587049
0.00056151
0.000585082
0.000516313
0.000579222
0.000587024
0.000561485
0.000585056
0.000516289
0.000579196
0.000587024
0.000561485
0.000585056
0.000516289
0.000579196
0.000587049
0.00056151
0.000585082
0.000516313
0.000579222
0.000587057
0.000561518
0.00058509
0.000516321
0.00057923
0.000587173
0.000561634
0.000585208
0.000516432
0.000579348
0.000587198
0.00056166
0.000585234
0.000516457
0.000579375
0.000587581
0.000562046
0.000585623
0.000516825
0.000579765
0.000587652
0.000562117
0.000585696
0.000516893
0.000579839
0.000588909
0.000563393
0.000586969
0.000518115
0.000581118
0.000589071
0.000563554
0.000587132
0.000518267
0.000581282
0.000593602
0.000568228
0.000591699
0.00052291
0.000585985
0.000592834
0.000567727
0.000591318
0.000522833
0.000583934
0.000588384
0.00056314
0.000586838
0.000518278
0.000579312
0.000588224
0.000562981
0.000586678
0.000518128
0.00057915
0.000586968
0.000561707
0.000585406
0.000516906
0.000577873
0.000586897
0.000561636
0.000585334
0.000516839
0.0005778
0.000586514
0.000561249
0.000584943
0.00051647
0.000577409
0.000586488
0.000561224
0.000584917
0.000516445
0.000577382
0.000586372
0.000561107
0.000584799
0.000516333
0.000577263
0.000586364
0.000561099
0.00058479
0.000516326
0.000577255
0.000586338
0.000561073
0.000584764
0.000516301
0.000577229
0.000586338
0.000561073
0.000584764
0.000516301
0.000577229
0.000586364
0.000561099
0.00058479
0.000516326
0.000577255
0.000586372
0.000561107
0.000584799
0.000516333
0.000577263
0.000586488
0.000561224
0.000584917
0.000516445
0.000577382
0.000586514
0.000561249
0.000584943
0.00051647
0.000577409
0.000586897
0.000561636
0.000585334
0.000516839
0.0005778
0.000586968
0.000561707
0.000585406
0.000516906
0.000577873
0.000588224
0.000562981
0.000586678
0.000518128
0.00057915
0.000588384
0.00056314
0.000586838
0.000518278
0.000579312
0.000592834
0.000567727
0.000591318
0.000522833
0.000583934
0.000592085
0.00056724
0.000590947
0.000522683
0.000581949
0.000587715
0.000562738
0.000586551
0.000518213
0.000577406
0.000587558
0.000562581
0.000586393
0.000518065
0.000577246
0.000586303
0.000561309
0.000585123
0.000516846
0.000575972
0.000586233
0.000561239
0.000585052
0.000516779
0.000575899
0.000585848
0.000560851
0.00058466
0.000516408
0.000575507
0.000585822
0.000560826
0.000584634
0.000516384
0.00057548
0.000585705
0.000560708
0.000584515
0.000516271
0.000575361
0.000585697
0.0005607
0.000584507
0.000516264
0.000575352
0.000585672
0.000560675
0.00058448
0.000516239
0.000575326
0.000585672
0.000560675
0.00058448
0.000516239
0.000575326
0.000585697
0.0005607
0.000584507
0.000516264
0.000575352
0.000585705
0.000560708
0.000584515
0.000516271
0.000575361
0.000585822
0.000560826
0.000584634
0.000516384
0.00057548
0.000585848
0.000560851
0.00058466
0.000516408
0.000575507
0.000586233
0.000561239
0.000585052
0.000516779
0.000575899
0.000586303
0.000561309
0.000585123
0.000516846
0.000575972
0.000587558
0.000562581
0.000586393
0.000518065
0.000577246
0.000587715
0.000562738
0.000586551
0.000518213
0.000577406
0.000592085
0.00056724
0.000590947
0.000522683
0.000581949
0.000591354
0.000566764
0.000590582
0.000522457
0.000579957
0.000587061
0.000562345
0.000586269
0.000518072
0.000575491
0.000586907
0.00056219
0.000586114
0.000517926
0.000575334
0.000585654
0.000560921
0.000584846
0.000516709
0.000574062
0.000585584
0.000560851
0.000584775
0.000516642
0.00057399
0.000585197
0.000560462
0.000584382
0.000516271
0.000573597
0.000585172
0.000560437
0.000584356
0.000516246
0.00057357
0.000585054
0.000560318
0.000584236
0.000516133
0.00057345
0.000585046
0.000560311
0.000584228
0.000516126
0.000573442
0.000585021
0.000560285
0.000584201
0.000516101
0.000573415
0.000585021
0.000560285
0.000584201
0.000516101
0.000573415
0.000585046
0.000560311
0.000584228
0.000516126
0.000573442
0.000585054
0.000560318
0.000584236
0.000516133
0.00057345
0.000585172
0.000560437
0.000584356
0.000516246
0.00057357
0.000585197
0.000560462
0.000584382
0.000516271
0.000573597
0.000585584
0.000560851
0.000584775
0.000516642
0.00057399
0.000585654
0.000560921
0.000584846
0.000516709
0.000574062
0.000586907
0.00056219
0.000586114
0.000517926
0.000575334
0.000587061
0.000562345
0.000586269
0.000518072
0.000575491
0.000591354
0.000566764
0.000590582
0.000522457
0.000579957
0.000590639
0.000566298
0.000590226
0.000522156
0.000577973
0.000586423
0.00056196
0.000585994
0.000517854
0.000573581
0.00058627
0.000561808
0.000585841
0.00051771
0.000573426
0.000585019
0.000560541
0.000584576
0.000516496
0.000572158
0.00058495
0.000560472
0.000584505
0.00051643
0.000572087
0.000584563
0.000560082
0.000584111
0.000516058
0.000571692
0.000584537
0.000560056
0.000584085
0.000516033
0.000571666
0.000584419
0.000559938
0.000583964
0.00051592
0.000571545
0.000584411
0.00055993
0.000583956
0.000515912
0.000571537
0.000584385
0.000559904
0.00058393
0.000515887
0.00057151
0.000584385
0.000559904
0.00058393
0.000515887
0.00057151
0.000584411
0.00055993
0.000583956
0.000515912
0.000571537
0.000584419
0.000559938
0.000583964
0.00051592
0.000571545
0.000584537
0.000560056
0.000584085
0.000516033
0.000571666
0.000584563
0.000560082
0.000584111
0.000516058
0.000571692
0.00058495
0.000560472
0.000584505
0.00051643
0.000572087
0.000585019
0.000560541
0.000584576
0.000516496
0.000572158
0.00058627
0.000561808
0.000585841
0.00051771
0.000573426
0.000586423
0.00056196
0.000585994
0.000517854
0.000573581
0.000590639
0.000566298
0.000590226
0.000522156
0.000577973
0.000589941
0.000565843
0.00058988
0.000521781
0.000576011
0.0005858
0.000561585
0.000585727
0.000517561
0.000571692
0.000585649
0.000561435
0.000585576
0.00051742
0.000571539
0.000584401
0.000560171
0.000584314
0.000516208
0.000570275
0.000584332
0.000560102
0.000584244
0.000516143
0.000570205
0.000583944
0.000559712
0.000583849
0.00051577
0.000569809
0.000583918
0.000559686
0.000583823
0.000515746
0.000569783
0.000583799
0.000559567
0.000583701
0.000515632
0.000569661
0.000583791
0.000559559
0.000583693
0.000515624
0.000569653
0.000583765
0.000559533
0.000583666
0.000515599
0.000569626
0.000583765
0.000559533
0.000583666
0.000515599
0.000569626
0.000583791
0.000559559
0.000583693
0.000515624
0.000569653
0.000583799
0.000559567
0.000583701
0.000515632
0.000569661
0.000583918
0.000559686
0.000583823
0.000515746
0.000569783
0.000583944
0.000559712
0.000583849
0.00051577
0.000569809
0.000584332
0.000560102
0.000584244
0.000516143
0.000570205
0.000584401
0.000560171
0.000584314
0.000516208
0.000570275
0.000585649
0.000561435
0.000585576
0.00051742
0.000571539
0.0005858
0.000561585
0.000585727
0.000517561
0.000571692
0.000589941
0.000565843
0.00058988
0.000521781
0.000576011
0.00058926
0.0005654
0.000589545
0.000521334
0.000573988
0.000585192
0.00056122
0.00058547
0.000517194
0.000569739
0.000585044
0.000561072
0.000585321
0.000517055
0.00056959
0.000583798
0.000559811
0.000584062
0.000515847
0.00056833
0.00058373
0.000559743
0.000583992
0.000515782
0.00056826
0.00058334
0.000559351
0.000583597
0.000515409
0.000567864
0.000583315
0.000559326
0.00058357
0.000515385
0.000567838
0.000583195
0.000559206
0.000583449
0.00051527
0.000567716
0.000583187
0.000559198
0.000583441
0.000515263
0.000567707
0.000583161
0.000559172
0.000583414
0.000515237
0.00056768
0.000583161
0.000559172
0.000583414
0.000515237
0.00056768
0.000583187
0.000559198
0.000583441
0.000515263
0.000567707
0.000583195
0.000559206
0.000583449
0.00051527
0.000567716
0.000583315
0.000559326
0.00058357
0.000515385
0.000567838
0.00058334
0.000559351
0.000583597
0.000515409
0.000567864
0.00058373
0.000559743
0.000583992
0.000515782
0.00056826
0.000583798
0.000559811
0.000584062
0.000515847
0.00056833
0.000585044
0.000561072
0.000585321
0.000517055
0.00056959
0.000585192
0.00056122
0.00058547
0.000517194
0.000569739
0.00058926
0.0005654
0.000589545
0.000521334
0.000573988
-1.81805e-05
1.81918e-05
4.05539e-06
9.12993e-07
3.00422e-07
1.89203e-07
1.67242e-07
1.62851e-07
1.61888e-07
1.61676e-07
1.61619e-07
1.61595e-07
1.61499e-07
1.61391e-07
1.60529e-07
1.59863e-07
1.5343e-07
1.50659e-07
1.11924e-07
1.07818e-07
-1.83587e-05
1.81999e-05
4.10813e-06
9.27136e-07
3.03524e-07
1.89875e-07
1.67374e-07
1.62866e-07
1.61874e-07
1.61657e-07
1.61597e-07
1.61573e-07
1.61475e-07
1.61365e-07
1.60489e-07
1.59815e-07
1.53311e-07
1.50533e-07
1.11625e-07
1.07606e-07
-1.836e-05
1.81961e-05
4.10782e-06
9.27251e-07
3.03576e-07
1.89891e-07
1.67378e-07
1.62867e-07
1.61874e-07
1.61657e-07
1.61597e-07
1.61573e-07
1.61475e-07
1.61365e-07
1.60488e-07
1.59814e-07
1.53309e-07
1.50531e-07
1.11622e-07
1.07604e-07
-1.83675e-05
1.81692e-05
4.10333e-06
9.27137e-07
3.03687e-07
1.89934e-07
1.6739e-07
1.62869e-07
1.61874e-07
1.61656e-07
1.61596e-07
1.61571e-07
1.61473e-07
1.61363e-07
1.60485e-07
1.59811e-07
1.53302e-07
1.50524e-07
1.1161e-07
1.07598e-07
-1.83677e-05
1.81671e-05
4.10283e-06
9.27078e-07
3.03683e-07
1.89934e-07
1.67391e-07
1.62869e-07
1.61874e-07
1.61656e-07
1.61596e-07
1.61571e-07
1.61473e-07
1.61363e-07
1.60485e-07
1.59811e-07
1.53302e-07
1.50524e-07
1.1161e-07
1.07598e-07
-1.83687e-05
1.81589e-05
4.10083e-06
9.26837e-07
3.03654e-07
1.89932e-07
1.67391e-07
1.62869e-07
1.61874e-07
1.61656e-07
1.61596e-07
1.61571e-07
1.61473e-07
1.61363e-07
1.60485e-07
1.59811e-07
1.53301e-07
1.50524e-07
1.11609e-07
1.07598e-07
-1.83688e-05
1.81582e-05
4.10066e-06
9.26815e-07
3.03651e-07
1.89932e-07
1.67391e-07
1.62869e-07
1.61874e-07
1.61656e-07
1.61596e-07
1.61571e-07
1.61473e-07
1.61363e-07
1.60485e-07
1.59811e-07
1.53301e-07
1.50524e-07
1.11609e-07
1.07598e-07
-1.83693e-05
1.8156e-05
4.10015e-06
9.26751e-07
3.03642e-07
1.89931e-07
1.67391e-07
1.62869e-07
1.61874e-07
1.61656e-07
1.61596e-07
1.61571e-07
1.61473e-07
1.61363e-07
1.60485e-07
1.59811e-07
1.53301e-07
1.50524e-07
1.11609e-07
1.07598e-07
-1.83693e-05
1.81558e-05
4.10011e-06
9.26747e-07
3.03642e-07
1.89931e-07
1.67391e-07
1.62869e-07
1.61874e-07
1.61656e-07
1.61596e-07
1.61571e-07
1.61473e-07
1.61363e-07
1.60485e-07
1.59811e-07
1.53301e-07
1.50524e-07
1.11609e-07
1.07598e-07
-1.83695e-05
1.81553e-05
4.10002e-06
9.26736e-07
3.0364e-07
1.89931e-07
1.67391e-07
1.62869e-07
1.61874e-07
1.61656e-07
1.61596e-07
1.61571e-07
1.61473e-07
1.61363e-07
1.60485e-07
1.59811e-07
1.53301e-07
1.50524e-07
1.11609e-07
1.07598e-07
-1.83695e-05
1.81553e-05
4.10002e-06
9.26736e-07
3.0364e-07
1.89931e-07
1.67391e-07
1.62869e-07
1.61874e-07
1.61656e-07
1.61596e-07
1.61571e-07
1.61473e-07
1.61363e-07
1.60485e-07
1.59811e-07
1.53301e-07
1.50524e-07
1.11609e-07
1.07598e-07
-1.83693e-05
1.81558e-05
4.10011e-06
9.26747e-07
3.03642e-07
1.89931e-07
1.67391e-07
1.62869e-07
1.61874e-07
1.61656e-07
1.61596e-07
1.61571e-07
1.61473e-07
1.61363e-07
1.60485e-07
1.59811e-07
1.53301e-07
1.50524e-07
1.11609e-07
1.07598e-07
-1.83693e-05
1.8156e-05
4.10015e-06
9.26751e-07
3.03642e-07
1.89931e-07
1.67391e-07
1.62869e-07
1.61874e-07
1.61656e-07
1.61596e-07
1.61571e-07
1.61473e-07
1.61363e-07
1.60485e-07
1.59811e-07
1.53301e-07
1.50524e-07
1.11609e-07
1.07598e-07
-1.83688e-05
1.81582e-05
4.10066e-06
9.26815e-07
3.03651e-07
1.89932e-07
1.67391e-07
1.62869e-07
1.61874e-07
1.61656e-07
1.61596e-07
1.61571e-07
1.61473e-07
1.61363e-07
1.60485e-07
1.59811e-07
1.53301e-07
1.50524e-07
1.11609e-07
1.07598e-07
-1.83687e-05
1.81589e-05
4.10083e-06
9.26837e-07
3.03654e-07
1.89932e-07
1.67391e-07
1.62869e-07
1.61874e-07
1.61656e-07
1.61596e-07
1.61571e-07
1.61473e-07
1.61363e-07
1.60485e-07
1.59811e-07
1.53301e-07
1.50524e-07
1.11609e-07
1.07598e-07
-1.83677e-05
1.81671e-05
4.10283e-06
9.27078e-07
3.03683e-07
1.89934e-07
1.67391e-07
1.62869e-07
1.61874e-07
1.61656e-07
1.61596e-07
1.61571e-07
1.61473e-07
1.61363e-07
1.60485e-07
1.59811e-07
1.53302e-07
1.50524e-07
1.1161e-07
1.07598e-07
-1.83675e-05
1.81692e-05
4.10333e-06
9.27137e-07
3.03687e-07
1.89934e-07
1.6739e-07
1.62869e-07
1.61874e-07
1.61656e-07
1.61596e-07
1.61571e-07
1.61473e-07
1.61363e-07
1.60485e-07
1.59811e-07
1.53302e-07
1.50524e-07
1.1161e-07
1.07598e-07
-1.836e-05
1.81961e-05
4.10782e-06
9.27251e-07
3.03576e-07
1.89891e-07
1.67378e-07
1.62867e-07
1.61874e-07
1.61657e-07
1.61597e-07
1.61573e-07
1.61475e-07
1.61365e-07
1.60488e-07
1.59814e-07
1.53309e-07
1.50531e-07
1.11622e-07
1.07604e-07
-1.83587e-05
1.81999e-05
4.10813e-06
9.27136e-07
3.03524e-07
1.89875e-07
1.67374e-07
1.62866e-07
1.61874e-07
1.61657e-07
1.61597e-07
1.61573e-07
1.61475e-07
1.61365e-07
1.60489e-07
1.59815e-07
1.53311e-07
1.50533e-07
1.11625e-07
1.07606e-07
-1.81805e-05
1.81918e-05
4.05539e-06
9.12993e-07
3.00422e-07
1.89203e-07
1.67242e-07
1.62851e-07
1.61888e-07
1.61676e-07
1.61619e-07
1.61595e-07
1.61499e-07
1.61391e-07
1.60529e-07
1.59863e-07
1.5343e-07
1.50659e-07
1.11924e-07
1.07818e-07
-1.78639e-05
1.8389e-05
4.09293e-06
9.2052e-07
3.01909e-07
1.89502e-07
1.67305e-07
1.62921e-07
1.6198e-07
1.61765e-07
1.61707e-07
1.61682e-07
1.61585e-07
1.61475e-07
1.60575e-07
1.59846e-07
1.53348e-07
1.50552e-07
1.11329e-07
1.07195e-07
-1.80338e-05
1.83978e-05
4.14623e-06
9.34811e-07
3.05047e-07
1.90182e-07
1.67439e-07
1.62933e-07
1.61967e-07
1.61746e-07
1.61685e-07
1.61661e-07
1.61561e-07
1.6145e-07
1.60533e-07
1.59797e-07
1.53228e-07
1.50424e-07
1.11026e-07
1.06978e-07
-1.80349e-05
1.83939e-05
4.14591e-06
9.34927e-07
3.05099e-07
1.90198e-07
1.67444e-07
1.62934e-07
1.61967e-07
1.61746e-07
1.61685e-07
1.6166e-07
1.61561e-07
1.61449e-07
1.60532e-07
1.59796e-07
1.53226e-07
1.50423e-07
1.11023e-07
1.06976e-07
-1.80411e-05
1.83667e-05
4.14139e-06
9.34813e-07
3.05212e-07
1.90241e-07