/*--------------------------------*- C++ -*----------------------------------*\
  =========                 |
  \\      /  F ield         | OpenFOAM: The Open Source CFD Toolbox
   \\    /   O peration     | Website:  https://openfoam.org
    \\  /    A nd           | Version:  8
     \\/     M anipulation  |
\*---------------------------------------------------------------------------*/
FoamFile
{
    version     2.0;
    format      ascii;
    class       volScalarField;
    location    "1.3";
    object      S1;
}
// * * * * * * * * * * * * * * * * * * * * * * * * * * * * * * * * * * * * * //

dimensions      [0 1 -1 0 0 0 0];

internalField   nonuniform List<scalar> 
180000
(
-8.12417e-32
-7.43534e-27
-6.20473e-22
-4.63349e-17
-3.05776e-12
-9.3733e-32
-8.52881e-27
-7.0699e-22
-5.23828e-17
-3.42393e-12
-9.40874e-32
-8.55986e-27
-7.09446e-22
-5.25541e-17
-3.43425e-12
-9.52682e-32
-8.66473e-27
-7.17861e-22
-5.31503e-17
-3.47073e-12
-9.53097e-32
-8.66852e-27
-7.18173e-22
-5.3173e-17
-3.47215e-12
-9.53949e-32
-8.67651e-27
-7.18851e-22
-5.32238e-17
-3.47543e-12
-9.53967e-32
-8.67675e-27
-7.18877e-22
-5.32262e-17
-3.47562e-12
-9.54013e-32
-8.67733e-27
-7.18937e-22
-5.32318e-17
-3.47604e-12
-9.53998e-32
-8.67723e-27
-7.18933e-22
-5.32317e-17
-3.47606e-12
-9.5399e-32
-8.6772e-27
-7.18934e-22
-5.32322e-17
-3.47611e-12
-9.5399e-32
-8.6772e-27
-7.18934e-22
-5.32322e-17
-3.47611e-12
-9.53998e-32
-8.67723e-27
-7.18933e-22
-5.32317e-17
-3.47606e-12
-9.54013e-32
-8.67733e-27
-7.18937e-22
-5.32318e-17
-3.47604e-12
-9.53967e-32
-8.67675e-27
-7.18877e-22
-5.32262e-17
-3.47562e-12
-9.53949e-32
-8.67651e-27
-7.18851e-22
-5.32238e-17
-3.47543e-12
-9.53097e-32
-8.66852e-27
-7.18173e-22
-5.3173e-17
-3.47215e-12
-9.52682e-32
-8.66473e-27
-7.17861e-22
-5.31503e-17
-3.47073e-12
-9.40874e-32
-8.55986e-27
-7.09446e-22
-5.25541e-17
-3.43425e-12
-9.3733e-32
-8.52881e-27
-7.0699e-22
-5.23828e-17
-3.42393e-12
-8.12417e-32
-7.43534e-27
-6.20473e-22
-4.63349e-17
-3.05776e-12
-8.12291e-32
-7.43619e-27
-6.23113e-22
-5.024e-17
-9.31767e-12
-9.37184e-32
-8.52956e-27
-7.0974e-22
-5.65089e-17
-1.0093e-11
-9.40728e-32
-8.56061e-27
-7.12199e-22
-5.66851e-17
-1.01128e-11
-9.52534e-32
-8.66546e-27
-7.20614e-22
-5.72936e-17
-1.01805e-11
-9.52949e-32
-8.66925e-27
-7.20926e-22
-5.73165e-17
-1.01828e-11
-9.538e-32
-8.67724e-27
-7.216e-22
-5.73653e-17
-1.0186e-11
-9.53818e-32
-8.67748e-27
-7.21626e-22
-5.73675e-17
-1.01861e-11
-9.53864e-32
-8.67805e-27
-7.21685e-22
-5.73721e-17
-1.0186e-11
-9.53849e-32
-8.67795e-27
-7.2168e-22
-5.7372e-17
-1.0186e-11
-9.53842e-32
-8.67792e-27
-7.21682e-22
-5.73722e-17
-1.01858e-11
-9.53842e-32
-8.67792e-27
-7.21682e-22
-5.73722e-17
-1.01858e-11
-9.53849e-32
-8.67795e-27
-7.2168e-22
-5.7372e-17
-1.0186e-11
-9.53864e-32
-8.67805e-27
-7.21685e-22
-5.73721e-17
-1.0186e-11
-9.53818e-32
-8.67748e-27
-7.21626e-22
-5.73675e-17
-1.01861e-11
-9.538e-32
-8.67724e-27
-7.216e-22
-5.73653e-17
-1.0186e-11
-9.52949e-32
-8.66925e-27
-7.20926e-22
-5.73165e-17
-1.01828e-11
-9.52534e-32
-8.66546e-27
-7.20614e-22
-5.72936e-17
-1.01805e-11
-9.40728e-32
-8.56061e-27
-7.12199e-22
-5.66851e-17
-1.01128e-11
-9.37184e-32
-8.52956e-27
-7.09741e-22
-5.65089e-17
-1.0093e-11
-8.12291e-32
-7.43619e-27
-6.23113e-22
-5.024e-17
-9.31767e-12
-8.12438e-32
-7.46992e-27
-6.71359e-22
-1.14468e-16
-1.05493e-10
-9.37314e-32
-8.56334e-27
-7.58689e-22
-1.22275e-16
-1.09148e-10
-9.40858e-32
-8.59438e-27
-7.61151e-22
-1.22477e-16
-1.09224e-10
-9.5266e-32
-8.69908e-27
-7.69471e-22
-1.23103e-16
-1.09462e-10
-9.53075e-32
-8.70286e-27
-7.69773e-22
-1.23122e-16
-1.09467e-10
-9.53926e-32
-8.71077e-27
-7.7038e-22
-1.23125e-16
-1.09447e-10
-9.53944e-32
-8.71101e-27
-7.70402e-22
-1.23124e-16
-1.09446e-10
-9.5399e-32
-8.71155e-27
-7.7044e-22
-1.23112e-16
-1.09434e-10
-9.53975e-32
-8.71146e-27
-7.70434e-22
-1.23111e-16
-1.09434e-10
-9.53967e-32
-8.71142e-27
-7.7043e-22
-1.23108e-16
-1.09431e-10
-9.53967e-32
-8.71142e-27
-7.7043e-22
-1.23108e-16
-1.09431e-10
-9.53975e-32
-8.71146e-27
-7.70434e-22
-1.23111e-16
-1.09434e-10
-9.5399e-32
-8.71155e-27
-7.7044e-22
-1.23112e-16
-1.09434e-10
-9.53944e-32
-8.71101e-27
-7.70402e-22
-1.23124e-16
-1.09446e-10
-9.53926e-32
-8.71077e-27
-7.7038e-22
-1.23125e-16
-1.09447e-10
-9.53075e-32
-8.70286e-27
-7.69773e-22
-1.23122e-16
-1.09467e-10
-9.5266e-32
-8.69908e-27
-7.69471e-22
-1.23103e-16
-1.09462e-10
-9.40858e-32
-8.59438e-27
-7.61151e-22
-1.22477e-16
-1.09224e-10
-9.37315e-32
-8.56334e-27
-7.58689e-22
-1.22275e-16
-1.09148e-10
-8.12438e-32
-7.46992e-27
-6.71359e-22
-1.14468e-16
-1.05493e-10
-8.14519e-32
-7.73407e-27
-1.00691e-21
-5.14972e-16
-6.36101e-10
-9.39297e-32
-8.81914e-27
-1.08511e-21
-5.1292e-16
-6.2532e-10
-9.42839e-32
-8.84992e-27
-1.0873e-21
-5.12854e-16
-6.2504e-10
-9.54621e-32
-8.9528e-27
-1.09385e-21
-5.11998e-16
-6.23694e-10
-9.55034e-32
-8.95647e-27
-1.09405e-21
-5.11948e-16
-6.23645e-10
-9.55879e-32
-8.96382e-27
-1.09413e-21
-5.11565e-16
-6.23328e-10
-9.55897e-32
-8.96402e-27
-1.09412e-21
-5.11546e-16
-6.23321e-10
-9.55941e-32
-8.96441e-27
-1.09401e-21
-5.11428e-16
-6.23238e-10
-9.55926e-32
-8.9643e-27
-1.09399e-21
-5.11423e-16
-6.23239e-10
-9.55918e-32
-8.96424e-27
-1.09396e-21
-5.11398e-16
-6.23222e-10
-9.55918e-32
-8.96424e-27
-1.09396e-21
-5.11398e-16
-6.23222e-10
-9.55926e-32
-8.9643e-27
-1.09399e-21
-5.11423e-16
-6.23239e-10
-9.55941e-32
-8.96441e-27
-1.09401e-21
-5.11428e-16
-6.23238e-10
-9.55897e-32
-8.96402e-27
-1.09412e-21
-5.11546e-16
-6.23321e-10
-9.55879e-32
-8.96382e-27
-1.09413e-21
-5.11565e-16
-6.23328e-10
-9.55034e-32
-8.95647e-27
-1.09405e-21
-5.11948e-16
-6.23645e-10
-9.54621e-32
-8.9528e-27
-1.09385e-21
-5.11998e-16
-6.23694e-10
-9.42839e-32
-8.84992e-27
-1.0873e-21
-5.12854e-16
-6.2504e-10
-9.39297e-32
-8.81914e-27
-1.08511e-21
-5.1292e-16
-6.2532e-10
-8.14519e-32
-7.73407e-27
-1.00691e-21
-5.14972e-16
-6.36101e-10
-8.24032e-32
-8.73679e-27
-2.0615e-21
-1.4897e-15
-1.50486e-09
-9.47951e-32
-9.72641e-27
-2.02067e-21
-1.34055e-15
-1.27835e-09
-9.51473e-32
-9.75495e-27
-2.0202e-21
-1.33737e-15
-1.27362e-09
-9.63134e-32
-9.84615e-27
-2.01421e-21
-1.32316e-15
-1.25419e-09
-9.63542e-32
-9.84931e-27
-2.01394e-21
-1.3227e-15
-1.25365e-09
-9.64359e-32
-9.8543e-27
-2.01196e-21
-1.32075e-15
-1.25178e-09
-9.64375e-32
-9.85437e-27
-2.01187e-21
-1.3207e-15
-1.25177e-09
-9.64412e-32
-9.85415e-27
-2.01128e-21
-1.3203e-15
-1.25151e-09
-9.64396e-32
-9.85402e-27
-2.01125e-21
-1.3203e-15
-1.25154e-09
-9.64387e-32
-9.85384e-27
-2.01113e-21
-1.32023e-15
-1.2515e-09
-9.64387e-32
-9.85384e-27
-2.01113e-21
-1.32023e-15
-1.2515e-09
-9.64396e-32
-9.85402e-27
-2.01125e-21
-1.3203e-15
-1.25154e-09
-9.64412e-32
-9.85415e-27
-2.01128e-21
-1.3203e-15
-1.25151e-09
-9.64375e-32
-9.85437e-27
-2.01187e-21
-1.3207e-15
-1.25177e-09
-9.64359e-32
-9.8543e-27
-2.01196e-21
-1.32075e-15
-1.25178e-09
-9.63542e-32
-9.84931e-27
-2.01394e-21
-1.3227e-15
-1.25365e-09
-9.63134e-32
-9.84615e-27
-2.01421e-21
-1.32316e-15
-1.25419e-09
-9.51473e-32
-9.75495e-27
-2.0202e-21
-1.33737e-15
-1.27362e-09
-9.47951e-32
-9.72641e-27
-2.02067e-21
-1.34055e-15
-1.27835e-09
-8.24032e-32
-8.73679e-27
-2.0615e-21
-1.4897e-15
-1.50486e-09
-8.44373e-32
-1.01018e-26
-2.44934e-21
-3.84547e-16
1.98824e-09
-9.6364e-32
-1.05771e-26
-1.79041e-21
4.9019e-16
3.17848e-09
-9.67065e-32
-1.05952e-26
-1.77785e-21
5.07379e-16
3.20179e-09
-9.78268e-32
-1.0642e-26
-1.72345e-21
5.76542e-16
3.29549e-09
-9.78659e-32
-1.06438e-26
-1.72197e-21
5.78267e-16
3.2978e-09
-9.79407e-32
-1.06441e-26
-1.71662e-21
5.83061e-16
3.30371e-09
-9.79421e-32
-1.0644e-26
-1.71656e-21
5.83001e-16
3.30361e-09
-9.79442e-32
-1.06431e-26
-1.71579e-21
5.83258e-16
3.30376e-09
-9.79427e-32
-1.0643e-26
-1.71585e-21
5.83134e-16
3.30359e-09
-9.79414e-32
-1.06427e-26
-1.71575e-21
5.83101e-16
3.3035e-09
-9.79414e-32
-1.06427e-26
-1.71575e-21
5.83101e-16
3.3035e-09
-9.79427e-32
-1.0643e-26
-1.71585e-21
5.83134e-16
3.30359e-09
-9.79442e-32
-1.06431e-26
-1.71579e-21
5.83258e-16
3.30376e-09
-9.79421e-32
-1.0644e-26
-1.71656e-21
5.83001e-16
3.30361e-09
-9.79407e-32
-1.06441e-26
-1.71662e-21
5.83061e-16
3.30371e-09
-9.78659e-32
-1.06438e-26
-1.72197e-21
5.78267e-16
3.2978e-09
-9.78268e-32
-1.0642e-26
-1.72345e-21
5.76543e-16
3.29549e-09
-9.67065e-32
-1.05952e-26
-1.77785e-21
5.07379e-16
3.20179e-09
-9.6364e-32
-1.05771e-26
-1.79041e-21
4.90191e-16
3.17848e-09
-8.44373e-32
-1.01018e-26
-2.44934e-21
-3.84547e-16
1.98824e-09
-8.27494e-32
-4.49741e-27
8.22238e-21
1.56272e-14
2.61147e-08
-9.30003e-32
-3.22352e-27
1.082e-20
1.8562e-14
2.96565e-08
-9.33124e-32
-3.21069e-27
1.08665e-20
1.86162e-14
2.97228e-08
-9.43224e-32
-3.15355e-27
1.10333e-20
1.88171e-14
2.99833e-08
-9.43597e-32
-3.15438e-27
1.10356e-20
1.88207e-14
2.99889e-08
-9.44331e-32
-3.15861e-27
1.10346e-20
1.8823e-14
2.99987e-08
-9.44351e-32
-3.15968e-27
1.10333e-20
1.88219e-14
2.99979e-08
-9.44392e-32
-3.16239e-27
1.10294e-20
1.88184e-14
2.99958e-08
-9.4438e-32
-3.16283e-27
1.10287e-20
1.88177e-14
2.99952e-08
-9.44374e-32
-3.16352e-27
1.10275e-20
1.88166e-14
2.99943e-08
-9.44374e-32
-3.16352e-27
1.10275e-20
1.88166e-14
2.99943e-08
-9.4438e-32
-3.16283e-27
1.10287e-20
1.88177e-14
2.99952e-08
-9.44392e-32
-3.16239e-27
1.10294e-20
1.88184e-14
2.99958e-08
-9.44351e-32
-3.15968e-27
1.10333e-20
1.88219e-14
2.99979e-08
-9.44331e-32
-3.15861e-27
1.10346e-20
1.8823e-14
2.99987e-08
-9.43597e-32
-3.15438e-27
1.10356e-20
1.88207e-14
2.99889e-08
-9.43224e-32
-3.15355e-27
1.10333e-20
1.88171e-14
2.99833e-08
-9.33124e-32
-3.21069e-27
1.08665e-20
1.86162e-14
2.97228e-08
-9.30003e-32
-3.22352e-27
1.082e-20
1.8562e-14
2.96565e-08
-8.27494e-32
-4.49741e-27
8.22238e-21
1.56272e-14
2.61147e-08
-5.15102e-32
3.74685e-26
6.25169e-20
7.77719e-14
9.99619e-08
-5.74261e-32
4.29131e-26
6.92585e-20
8.45428e-14
1.0699e-07
-5.76734e-32
4.29884e-26
6.93683e-20
8.46601e-14
1.07115e-07
-5.8561e-32
4.31618e-26
6.96705e-20
8.50443e-14
1.07586e-07
-5.86059e-32
4.31534e-26
6.96667e-20
8.50465e-14
1.07594e-07
-5.87446e-32
4.30834e-26
6.96068e-20
8.50171e-14
1.07593e-07
-5.87535e-32
4.30755e-26
6.95993e-20
8.50121e-14
1.0759e-07
-5.87838e-32
4.30464e-26
6.9571e-20
8.49928e-14
1.0758e-07
-5.87853e-32
4.30434e-26
6.95679e-20
8.49905e-14
1.07578e-07
-5.87908e-32
4.30365e-26
6.9561e-20
8.49856e-14
1.07575e-07
-5.87908e-32
4.30365e-26
6.9561e-20
8.49856e-14
1.07575e-07
-5.87853e-32
4.30434e-26
6.95679e-20
8.49905e-14
1.07578e-07
-5.87838e-32
4.30464e-26
6.9571e-20
8.49928e-14
1.0758e-07
-5.87535e-32
4.30755e-26
6.95993e-20
8.50121e-14
1.0759e-07
-5.87446e-32
4.30834e-26
6.96068e-20
8.50171e-14
1.07593e-07
-5.86059e-32
4.31534e-26
6.96667e-20
8.50465e-14
1.07594e-07
-5.8561e-32
4.31618e-26
6.96705e-20
8.50443e-14
1.07586e-07
-5.76734e-32
4.29884e-26
6.93683e-20
8.46601e-14
1.07115e-07
-5.74261e-32
4.29131e-26
6.92585e-20
8.45428e-14
1.0699e-07
-5.15102e-32
3.74685e-26
6.25169e-20
7.77719e-14
9.99619e-08
9.01225e-32
1.9194e-25
2.28919e-19
2.36188e-13
2.52933e-07
9.24434e-32
2.04572e-25
2.4187e-19
2.47709e-13
2.62779e-07
9.22798e-32
2.04725e-25
2.42052e-19
2.47892e-13
2.62944e-07
9.11278e-32
2.0472e-25
2.42271e-19
2.48341e-13
2.63485e-07
9.10308e-32
2.0467e-25
2.42236e-19
2.48329e-13
2.63487e-07
9.05568e-32
2.04324e-25
2.41963e-19
2.48189e-13
2.63435e-07
9.05193e-32
2.04292e-25
2.41938e-19
2.48174e-13
2.63427e-07
9.03733e-32
2.04167e-25
2.41834e-19
2.48113e-13
2.63396e-07
9.03619e-32
2.04156e-25
2.41824e-19
2.48107e-13
2.63392e-07
9.03305e-32
2.04127e-25
2.418e-19
2.48092e-13
2.63384e-07
9.03305e-32
2.04127e-25
2.418e-19
2.48092e-13
2.63384e-07
9.03619e-32
2.04156e-25
2.41824e-19
2.48107e-13
2.63392e-07
9.03733e-32
2.04167e-25
2.41834e-19
2.48113e-13
2.63396e-07
9.05193e-32
2.04292e-25
2.41938e-19
2.48174e-13
2.63427e-07
9.05568e-32
2.04324e-25
2.41963e-19
2.48189e-13
2.63435e-07
9.10308e-32
2.0467e-25
2.42236e-19
2.48329e-13
2.63487e-07
9.11278e-32
2.0472e-25
2.42271e-19
2.48341e-13
2.63485e-07
9.22798e-32
2.04725e-25
2.42052e-19
2.47892e-13
2.62944e-07
9.24435e-32
2.04572e-25
2.4187e-19
2.47709e-13
2.62779e-07
9.01225e-32
1.9194e-25
2.28919e-19
2.36188e-13
2.52933e-07
5.33008e-31
6.10095e-25
6.16701e-19
5.47321e-13
4.94167e-07
5.46091e-31
6.3111e-25
6.35584e-19
5.62101e-13
5.03854e-07
5.45918e-31
6.31272e-25
6.35776e-19
5.623e-13
5.03993e-07
5.42863e-31
6.29957e-25
6.35136e-19
5.62378e-13
5.04246e-07
5.4258e-31
6.29774e-25
6.35011e-19
5.62324e-13
5.04226e-07
5.41004e-31
6.28632e-25
6.34197e-19
5.61925e-13
5.04053e-07
5.4088e-31
6.28538e-25
6.34129e-19
5.61889e-13
5.04036e-07
5.40377e-31
6.28151e-25
6.33846e-19
5.61741e-13
5.03966e-07
5.40337e-31
6.2812e-25
6.33822e-19
5.61728e-13
5.0396e-07
5.40227e-31
6.28034e-25
6.33759e-19
5.61694e-13
5.03943e-07
5.40227e-31
6.28034e-25
6.33759e-19
5.61694e-13
5.03943e-07
5.40337e-31
6.2812e-25
6.33822e-19
5.61728e-13
5.0396e-07
5.40377e-31
6.28151e-25
6.33846e-19
5.61741e-13
5.03966e-07
5.4088e-31
6.28538e-25
6.34129e-19
5.61889e-13
5.04036e-07
5.41004e-31
6.28632e-25
6.34197e-19
5.61925e-13
5.04053e-07
5.4258e-31
6.29774e-25
6.35011e-19
5.62324e-13
5.04226e-07
5.42863e-31
6.29957e-25
6.35136e-19
5.62378e-13
5.04246e-07
5.45918e-31
6.31272e-25
6.35776e-19
5.623e-13
5.03993e-07
5.46091e-31
6.3111e-25
6.35584e-19
5.62101e-13
5.03854e-07
5.33008e-31
6.10095e-25
6.16701e-19
5.47321e-13
4.94167e-07
1.57596e-30
1.44016e-24
1.22221e-18
8.54579e-13
4.90028e-07
1.59842e-30
1.46904e-24
1.24686e-18
8.72703e-13
4.99786e-07
1.59794e-30
1.46907e-24
1.24701e-18
8.72923e-13
4.99928e-07
1.58929e-30
1.46452e-24
1.24477e-18
8.7266e-13
5.00204e-07
1.58855e-30
1.46406e-24
1.24451e-18
8.72567e-13
5.00186e-07
1.58433e-30
1.46131e-24
1.24283e-18
8.71918e-13
5.0002e-07
1.584e-30
1.46109e-24
1.2427e-18
8.71862e-13
5.00004e-07
1.58267e-30
1.46019e-24
1.24214e-18
8.7163e-13
4.99937e-07
1.58256e-30
1.46012e-24
1.2421e-18
8.71611e-13
4.9993e-07
1.58227e-30
1.45992e-24
1.24197e-18
8.71558e-13
4.99915e-07
1.58227e-30
1.45992e-24
1.24197e-18
8.71558e-13
4.99915e-07
1.58256e-30
1.46012e-24
1.2421e-18
8.71611e-13
4.9993e-07
1.58267e-30
1.46019e-24
1.24214e-18
8.7163e-13
4.99937e-07
1.584e-30
1.46109e-24
1.2427e-18
8.71862e-13
5.00004e-07
1.58433e-30
1.46131e-24
1.24283e-18
8.71918e-13
5.0002e-07
1.58855e-30
1.46406e-24
1.24451e-18
8.72567e-13
5.00186e-07
1.58929e-30
1.46452e-24
1.24477e-18
8.7266e-13
5.00204e-07
1.59794e-30
1.46907e-24
1.24701e-18
8.72923e-13
4.99928e-07
1.59842e-30
1.46904e-24
1.24686e-18
8.72703e-13
4.99786e-07
1.57596e-30
1.44016e-24
1.22221e-18
8.54579e-13
4.90028e-07
3.62362e-30
2.82734e-24
2.0417e-18
1.15794e-12
4.85959e-07
3.6477e-30
2.86194e-24
2.07205e-18
1.17949e-12
4.95786e-07
3.64636e-30
2.86162e-24
2.07212e-18
1.17974e-12
4.95932e-07
3.6256e-30
2.85118e-24
2.06761e-18
1.17916e-12
4.9623e-07
3.62394e-30
2.85025e-24
2.06714e-18
1.17903e-12
4.96213e-07
3.6145e-30
2.84479e-24
2.06431e-18
1.17815e-12
4.96055e-07
3.61379e-30
2.84437e-24
2.06409e-18
1.17807e-12
4.96039e-07
3.61083e-30
2.84261e-24
2.06316e-18
1.17776e-12
4.95975e-07
3.6106e-30
2.84248e-24
2.06309e-18
1.17773e-12
4.95969e-07
3.60996e-30
2.8421e-24
2.06288e-18
1.17766e-12
4.95954e-07
3.60996e-30
2.8421e-24
2.06288e-18
1.17766e-12
4.95954e-07
3.6106e-30
2.84248e-24
2.06309e-18
1.17773e-12
4.95969e-07
3.61083e-30
2.84261e-24
2.06316e-18
1.17776e-12
4.95975e-07
3.61379e-30
2.84437e-24
2.06409e-18
1.17807e-12
4.96039e-07
3.61449e-30
2.84479e-24
2.06431e-18
1.17815e-12
4.96055e-07
3.62394e-30
2.85025e-24
2.06714e-18
1.17903e-12
4.96213e-07
3.6256e-30
2.85118e-24
2.06761e-18
1.17916e-12
4.9623e-07
3.64636e-30
2.86162e-24
2.07212e-18
1.17974e-12
4.95932e-07
3.6477e-30
2.86194e-24
2.07205e-18
1.17949e-12
4.95786e-07
3.62362e-30
2.82734e-24
2.0417e-18
1.15794e-12
4.85959e-07
7.18427e-30
4.91366e-24
3.0713e-18
1.45733e-12
4.81939e-07
7.19348e-30
4.95033e-24
3.10742e-18
1.48239e-12
4.91833e-07
7.19037e-30
4.94939e-24
3.10736e-18
1.48266e-12
4.91983e-07
7.14747e-30
4.9297e-24
3.09993e-18
1.48181e-12
4.92302e-07
7.14421e-30
4.92808e-24
3.09922e-18
1.48164e-12
4.92287e-07
7.12567e-30
4.91854e-24
3.09494e-18
1.48053e-12
4.92136e-07
7.1243e-30
4.91782e-24
3.09461e-18
1.48043e-12
4.92121e-07
7.11855e-30
4.9148e-24
3.09322e-18
1.48005e-12
4.92059e-07
7.11812e-30
4.91457e-24
3.09312e-18
1.48001e-12
4.92053e-07
7.11688e-30
4.91392e-24
3.09281e-18
1.47993e-12
4.92038e-07
7.11688e-30
4.91392e-24
3.09281e-18
1.47993e-12
4.92038e-07
7.11812e-30
4.91457e-24
3.09312e-18
1.48001e-12
4.92053e-07
7.11855e-30
4.9148e-24
3.09322e-18
1.48005e-12
4.92059e-07
7.1243e-30
4.91782e-24
3.09461e-18
1.48043e-12
4.92121e-07
7.12567e-30
4.91854e-24
3.09494e-18
1.48053e-12
4.92136e-07
7.14421e-30
4.92808e-24
3.09922e-18
1.48164e-12
4.92287e-07
7.14747e-30
4.9297e-24
3.09993e-18
1.48181e-12
4.92302e-07
7.19037e-30
4.94939e-24
3.10736e-18
1.48266e-12
4.91983e-07
7.19348e-30
4.95033e-24
3.10742e-18
1.48239e-12
4.91833e-07
7.18427e-30
4.91366e-24
3.0713e-18
1.45733e-12
4.81939e-07
1.28676e-29
7.83791e-24
4.30703e-18
1.75265e-12
4.77962e-07
1.28344e-29
7.87158e-24
4.34906e-18
1.7813e-12
4.87922e-07
1.28282e-29
7.86972e-24
4.34885e-18
1.78162e-12
4.88076e-07
1.2749e-29
7.83679e-24
4.3379e-18
1.78051e-12
4.88415e-07
1.27431e-29
7.83417e-24
4.33691e-18
1.78032e-12
4.88402e-07
1.27101e-29
7.81896e-24
4.33092e-18
1.77898e-12
4.88258e-07
1.27077e-29
7.81783e-24
4.33046e-18
1.77887e-12
4.88244e-07
1.26975e-29
7.81305e-24
4.32853e-18
1.77841e-12
4.88184e-07
1.26968e-29
7.8127e-24
4.32838e-18
1.77837e-12
4.88178e-07
1.26946e-29
7.81166e-24
4.32796e-18
1.77827e-12
4.88164e-07
1.26946e-29
7.81166e-24
4.32796e-18
1.77827e-12
4.88164e-07
1.26968e-29
7.8127e-24
4.32838e-18
1.77837e-12
4.88178e-07
1.26975e-29
7.81305e-24
4.32853e-18
1.77841e-12
4.88184e-07
1.27077e-29
7.81783e-24
4.33046e-18
1.77887e-12
4.88244e-07
1.27101e-29
7.81896e-24
4.33092e-18
1.77898e-12
4.88258e-07
1.27431e-29
7.83417e-24
4.33691e-18
1.78032e-12
4.88402e-07
1.2749e-29
7.83679e-24
4.3379e-18
1.78051e-12
4.88415e-07
1.28282e-29
7.86972e-24
4.34885e-18
1.78162e-12
4.88076e-07
1.28344e-29
7.87158e-24
4.34906e-18
1.7813e-12
4.87922e-07
1.28676e-29
7.83791e-24
4.30703e-18
1.75265e-12
4.77962e-07
2.13822e-29
1.17355e-23
5.74476e-18
2.04384e-12
4.74025e-07
2.12658e-29
1.17598e-23
5.79298e-18
2.07616e-12
4.8405e-07
2.12548e-29
1.17566e-23
5.79261e-18
2.07652e-12
4.84207e-07
2.11203e-29
1.17059e-23
5.7776e-18
2.0752e-12
4.84567e-07
2.11106e-29
1.1702e-23
5.77627e-18
2.07497e-12
4.84555e-07
2.1056e-29
1.16793e-23
5.76831e-18
2.07342e-12
4.84419e-07
2.10521e-29
1.16776e-23
5.76771e-18
2.0733e-12
4.84405e-07
2.10354e-29
1.16705e-23
5.76515e-18
2.07276e-12
4.84347e-07
2.10342e-29
1.167e-23
5.76496e-18
2.07272e-12
4.84342e-07
2.10306e-29
1.16684e-23
5.7644e-18
2.0726e-12
4.84328e-07
2.10306e-29
1.16684e-23
5.7644e-18
2.0726e-12
4.84328e-07
2.10342e-29
1.167e-23
5.76496e-18
2.07272e-12
4.84342e-07
2.10354e-29
1.16705e-23
5.76515e-18
2.07276e-12
4.84347e-07
2.10521e-29
1.16776e-23
5.76771e-18
2.0733e-12
4.84405e-07
2.1056e-29
1.16793e-23
5.76831e-18
2.07342e-12
4.84419e-07
2.11106e-29
1.1702e-23
5.77627e-18
2.07497e-12
4.84555e-07
2.11203e-29
1.17059e-23
5.7776e-18
2.0752e-12
4.84567e-07
2.12548e-29
1.17566e-23
5.79261e-18
2.07652e-12
4.84207e-07
2.12658e-29
1.17598e-23
5.79298e-18
2.07616e-12
4.8405e-07
2.13822e-29
1.17355e-23
5.74476e-18
2.04384e-12
4.74025e-07
3.35333e-29
1.67383e-23
7.38025e-18
2.3308e-12
4.70124e-07
3.32777e-29
1.67457e-23
7.43506e-18
2.36688e-12
4.80213e-07
3.32595e-29
1.67409e-23
7.43451e-18
2.36728e-12
4.80374e-07
3.30454e-29
1.66672e-23
7.41494e-18
2.36577e-12
4.80754e-07
3.30304e-29
1.66616e-23
7.41325e-18
2.36552e-12
4.80743e-07
3.29452e-29
1.66293e-23
7.40307e-18
2.36377e-12
4.80613e-07
3.29391e-29
1.6627e-23
7.40231e-18
2.36363e-12
4.806e-07
3.29131e-29
1.66169e-23
7.39906e-18
2.36303e-12
4.80545e-07
3.29113e-29
1.66162e-23
7.39881e-18
2.36298e-12
4.80539e-07
3.29057e-29
1.6614e-23
7.39811e-18
2.36285e-12
4.80526e-07
3.29057e-29
1.6614e-23
7.39811e-18
2.36285e-12
4.80526e-07
3.29113e-29
1.66162e-23
7.39881e-18
2.36298e-12
4.80539e-07
3.29131e-29
1.66169e-23
7.39906e-18
2.36303e-12
4.80545e-07
3.29391e-29
1.6627e-23
7.40231e-18
2.36363e-12
4.806e-07
3.29452e-29
1.66293e-23
7.40307e-18
2.36377e-12
4.80613e-07
3.30304e-29
1.66616e-23
7.41325e-18
2.36552e-12
4.80743e-07
3.30454e-29
1.66672e-23
7.41493e-18
2.36577e-12
4.80754e-07
3.32595e-29
1.67409e-23
7.43451e-18
2.36728e-12
4.80373e-07
3.32777e-29
1.67457e-23
7.43506e-18
2.36687e-12
4.80213e-07
3.35333e-29
1.67383e-23
7.38025e-18
2.3308e-12
4.70124e-07
5.02203e-29
2.29747e-23
9.20916e-18
2.61344e-12
4.66256e-07
4.97517e-29
2.29565e-23
9.27106e-18
2.65336e-12
4.76407e-07
4.97238e-29
2.29496e-23
9.27032e-18
2.65383e-12
4.76571e-07
4.94e-29
2.28474e-23
9.24575e-18
2.65216e-12
4.76971e-07
4.93777e-29
2.28398e-23
9.24366e-18
2.65187e-12
4.76961e-07
4.92507e-29
2.27957e-23
9.23105e-18
2.64994e-12
4.76839e-07
4.92417e-29
2.27925e-23
9.23011e-18
2.64979e-12
4.76826e-07
4.92031e-29
2.27788e-23
9.22609e-18
2.64912e-12
4.76773e-07
4.92004e-29
2.27778e-23
9.22579e-18
2.64907e-12
4.76768e-07
4.91922e-29
2.27749e-23
9.22492e-18
2.64892e-12
4.76755e-07
4.91922e-29
2.27749e-23
9.22492e-18
2.64892e-12
4.76755e-07
4.92004e-29
2.27778e-23
9.22579e-18
2.64907e-12
4.76768e-07
4.92031e-29
2.27788e-23
9.22609e-18
2.64912e-12
4.76773e-07
4.92417e-29
2.27925e-23
9.23011e-18
2.64979e-12
4.76826e-07
4.92507e-29
2.27957e-23
9.23105e-18
2.64994e-12
4.76839e-07
4.93777e-29
2.28398e-23
9.24366e-18
2.65187e-12
4.76961e-07
4.94e-29
2.28474e-23
9.24575e-18
2.65216e-12
4.76971e-07
4.97238e-29
2.29496e-23
9.27032e-18
2.65383e-12
4.76571e-07
4.97517e-29
2.29565e-23
9.27106e-18
2.65336e-12
4.76407e-07
5.02203e-29
2.29747e-23
9.20916e-18
2.61344e-12
4.66256e-07
7.24337e-29
3.05693e-23
1.1227e-17
2.8917e-12
4.62415e-07
7.16593e-29
3.05158e-23
1.12966e-17
2.93554e-12
4.72629e-07
7.16182e-29
3.05065e-23
1.12957e-17
2.93606e-12
4.72797e-07
7.11486e-29
3.03697e-23
1.12657e-17
2.93427e-12
4.73215e-07
7.11167e-29
3.03597e-23
1.12632e-17
2.93396e-12
4.73207e-07
7.09344e-29
3.03013e-23
1.1248e-17
2.93185e-12
4.73091e-07
7.09216e-29
3.02972e-23
1.12468e-17
2.93168e-12
4.73079e-07
7.08665e-29
3.02792e-23
1.1242e-17
2.93096e-12
4.73028e-07
7.08626e-29
3.02779e-23
1.12416e-17
2.9309e-12
4.73023e-07
7.08509e-29
3.0274e-23
1.12406e-17
2.93074e-12
4.73011e-07
7.08509e-29
3.0274e-23
1.12406e-17
2.93074e-12
4.73011e-07
7.08626e-29
3.02779e-23
1.12416e-17
2.9309e-12
4.73023e-07
7.08665e-29
3.02792e-23
1.1242e-17
2.93096e-12
4.73028e-07
7.09216e-29
3.02972e-23
1.12468e-17
2.93168e-12
4.73079e-07
7.09344e-29
3.03013e-23
1.1248e-17
2.93185e-12
4.73091e-07
7.11167e-29
3.03597e-23
1.12632e-17
2.93396e-12
4.73207e-07
7.11486e-29
3.03697e-23
1.12657e-17
2.93427e-12
4.73215e-07
7.16182e-29
3.05065e-23
1.12957e-17
2.93606e-12
4.72797e-07
7.16593e-29
3.05158e-23
1.12966e-17
2.93554e-12
4.72629e-07
7.24337e-29
3.05693e-23
1.1227e-17
2.8917e-12
4.62415e-07
1.01253e-28
3.96429e-23
1.34292e-17
3.16546e-12
4.58596e-07
1.00059e-28
3.95437e-23
1.35073e-17
3.21331e-12
4.68871e-07
1e-28
3.95314e-23
1.35062e-17
3.2139e-12
4.69042e-07
9.93421e-29
3.93538e-23
1.34705e-17
3.21201e-12
4.69479e-07
9.92979e-29
3.9341e-23
1.34675e-17
3.21169e-12
4.69472e-07
9.90445e-29
3.92657e-23
1.34494e-17
3.20941e-12
4.69363e-07
9.90269e-29
3.92604e-23
1.34481e-17
3.20923e-12
4.69351e-07
9.89506e-29
3.92372e-23
1.34424e-17
3.20845e-12
4.69302e-07
9.89452e-29
3.92356e-23
1.34419e-17
3.20838e-12
4.69297e-07
9.8929e-29
3.92306e-23
1.34407e-17
3.20821e-12
4.69286e-07
9.8929e-29
3.92306e-23
1.34407e-17
3.20821e-12
4.69286e-07
9.89452e-29
3.92356e-23
1.34419e-17
3.20838e-12
4.69297e-07
9.89506e-29
3.92372e-23
1.34424e-17
3.20845e-12
4.69302e-07
9.90269e-29
3.92604e-23
1.34481e-17
3.20923e-12
4.69351e-07
9.90445e-29
3.92657e-23
1.34494e-17
3.20941e-12
4.69363e-07
9.92979e-29
3.9341e-23
1.34675e-17
3.21169e-12
4.69472e-07
9.93421e-29
3.93538e-23
1.34705e-17
3.21201e-12
4.69479e-07
1e-28
3.95314e-23
1.35062e-17
3.2139e-12
4.69042e-07
1.00059e-28
3.95436e-23
1.35073e-17
3.21331e-12
4.68871e-07
1.01253e-28
3.96429e-23
1.34292e-17
3.16546e-12
4.58596e-07
1.37843e-28
5.03124e-23
1.58111e-17
3.43465e-12
4.54771e-07
1.36091e-28
5.01562e-23
1.58985e-17
3.48659e-12
4.65108e-07
1.36012e-28
5.01406e-23
1.58973e-17
3.48725e-12
4.65282e-07
1.35115e-28
4.99154e-23
1.58555e-17
3.4853e-12
4.65738e-07
1.35056e-28
4.98994e-23
1.58521e-17
3.48496e-12
4.65732e-07
1.34713e-28
4.98045e-23
1.5831e-17
3.48252e-12
4.65629e-07
1.34689e-28
4.97978e-23
1.58294e-17
3.48233e-12
4.65617e-07
1.34586e-28
4.97687e-23
1.58227e-17
3.48149e-12
4.6557e-07
1.34579e-28
4.97666e-23
1.58222e-17
3.48142e-12
4.65566e-07
1.34557e-28
4.97604e-23
1.58208e-17
3.48124e-12
4.65555e-07
1.34557e-28
4.97604e-23
1.58208e-17
3.48124e-12
4.65555e-07
1.34579e-28
4.97666e-23
1.58222e-17
3.48142e-12
4.65566e-07
1.34586e-28
4.97687e-23
1.58227e-17
3.48149e-12
4.6557e-07
1.34689e-28
4.97978e-23
1.58294e-17
3.48233e-12
4.65617e-07
1.34713e-28
4.98045e-23
1.5831e-17
3.48252e-12
4.65629e-07
1.35056e-28
4.98994e-23
1.58521e-17
3.48496e-12
4.65732e-07
1.35115e-28
4.99154e-23
1.58555e-17
3.4853e-12
4.65738e-07
1.36012e-28
5.01406e-23
1.58973e-17
3.48725e-12
4.65282e-07
1.36091e-28
5.01561e-23
1.58985e-17
3.48659e-12
4.65108e-07
1.37843e-28
5.03124e-23
1.58111e-17
3.43465e-12
4.54771e-07
-3.9522e-07
-2.90779e-08
-4.31906e-10
-1.39908e-12
-8.74497e-16
3.9852e-18
4.12131e-18
4.12398e-18
4.12461e-18
4.12471e-18
4.12502e-18
4.12595e-18
4.13157e-18
4.13943e-18
4.20962e-18
4.27642e-18
5.01078e-18
5.44212e-18
1.65121e-17
1.93787e-17
-4.373e-07
-3.24355e-08
-4.94057e-10
-1.64734e-12
-1.0636e-15
3.95753e-18
4.12122e-18
4.12393e-18
4.12456e-18
4.12463e-18
4.12465e-18
4.12543e-18
4.13114e-18
4.13911e-18
4.21029e-18
4.27777e-18
5.02013e-18
5.45406e-18
1.66348e-17
1.95272e-17
-4.38476e-07
-3.25154e-08
-4.95241e-10
-1.65153e-12
-1.06668e-15
3.95707e-18
4.12122e-18
4.12394e-18
4.12456e-18
4.12464e-18
4.12466e-18
4.12546e-18
4.13118e-18
4.13915e-18
4.21036e-18
4.27784e-18
5.02033e-18
5.45427e-18
1.66359e-17
1.95283e-17
-4.42708e-07
-3.27904e-08
-4.98823e-10
-1.66284e-12
-1.07449e-15
3.95594e-18
4.12122e-18
4.12394e-18
4.12457e-18
4.12464e-18
4.12471e-18
4.1256e-18
4.13133e-18
4.13931e-18
4.21057e-18
4.27809e-18
5.0209e-18
5.4549e-18
1.66392e-17
1.95313e-17
-4.42876e-07
-3.28001e-08
-4.98932e-10
-1.66313e-12
-1.07467e-15
3.95591e-18
4.12122e-18
4.12394e-18
4.12457e-18
4.12464e-18
4.12472e-18
4.1256e-18
4.13133e-18
4.13931e-18
4.21057e-18
4.27809e-18
5.02092e-18
5.45492e-18
1.66393e-17
1.95314e-17
-4.43282e-07
-3.28183e-08
-4.99084e-10
-1.66344e-12
-1.07481e-15
3.95589e-18
4.12122e-18
4.12394e-18
4.12457e-18
4.12464e-18
4.12472e-18
4.12561e-18
4.13134e-18
4.13932e-18
4.21058e-18
4.2781e-18
5.02094e-18
5.45494e-18
1.66394e-17
1.95314e-17
-4.43308e-07
-3.28191e-08
-4.99085e-10
-1.66343e-12
-1.0748e-15
3.95589e-18
4.12122e-18
4.12394e-18
4.12457e-18
4.12464e-18
4.12472e-18
4.12561e-18
4.13134e-18
4.13932e-18
4.21058e-18
4.27811e-18
5.02094e-18
5.45495e-18
1.66394e-17
1.95314e-17
-4.43371e-07
-3.28202e-08
-4.99075e-10
-1.66336e-12
-1.07474e-15
3.9559e-18
4.12122e-18
4.12394e-18
4.12457e-18
4.12464e-18
4.12472e-18
4.12561e-18
4.13134e-18
4.13932e-18
4.21058e-18
4.27811e-18
5.02094e-18
5.45495e-18
1.66394e-17
1.95314e-17
-4.43376e-07
-3.28202e-08
-4.99072e-10
-1.66334e-12
-1.07473e-15
3.9559e-18
4.12122e-18
4.12394e-18
4.12457e-18
4.12464e-18
4.12472e-18
4.12561e-18
4.13134e-18
4.13932e-18
4.21058e-18
4.27811e-18
5.02094e-18
5.45495e-18
1.66394e-17
1.95314e-17
-4.43386e-07
-3.28201e-08
-4.99067e-10
-1.66332e-12
-1.07472e-15
3.9559e-18
4.12122e-18
4.12394e-18
4.12457e-18
4.12464e-18
4.12472e-18
4.12561e-18
4.13134e-18
4.13932e-18
4.21058e-18
4.27811e-18
5.02094e-18
5.45495e-18
1.66394e-17
1.95314e-17
-4.43385e-07
-3.28201e-08
-4.99067e-10
-1.66332e-12
-1.07472e-15
3.9559e-18
4.12122e-18
4.12394e-18
4.12457e-18
4.12464e-18
4.12472e-18
4.12561e-18
4.13134e-18
4.13932e-18
4.21058e-18
4.27811e-18
5.02094e-18
5.45495e-18
1.66394e-17
1.95314e-17
-4.43376e-07
-3.28202e-08
-4.99072e-10
-1.66334e-12
-1.07473e-15
3.9559e-18
4.12122e-18
4.12394e-18
4.12457e-18
4.12464e-18
4.12472e-18
4.12561e-18
4.13134e-18
4.13932e-18
4.21058e-18
4.27811e-18
5.02094e-18
5.45495e-18
1.66394e-17
1.95314e-17
-4.43371e-07
-3.28202e-08
-4.99075e-10
-1.66336e-12
-1.07474e-15
3.9559e-18
4.12122e-18
4.12394e-18
4.12457e-18
4.12464e-18
4.12472e-18
4.12561e-18
4.13134e-18
4.13932e-18
4.21058e-18
4.27811e-18
5.02094e-18
5.45495e-18
1.66394e-17
1.95314e-17
-4.43308e-07
-3.28191e-08
-4.99085e-10
-1.66343e-12
-1.0748e-15
3.95589e-18
4.12122e-18
4.12394e-18
4.12457e-18
4.12464e-18
4.12472e-18
4.12561e-18
4.13134e-18
4.13932e-18
4.21058e-18
4.27811e-18
5.02094e-18
5.45495e-18
1.66394e-17
1.95314e-17
-4.43282e-07
-3.28183e-08
-4.99084e-10
-1.66344e-12
-1.07481e-15
3.95589e-18
4.12122e-18
4.12394e-18
4.12457e-18
4.12464e-18
4.12472e-18
4.12561e-18
4.13134e-18
4.13932e-18
4.21058e-18
4.2781e-18
5.02094e-18
5.45494e-18
1.66394e-17
1.95314e-17
-4.42876e-07
-3.28001e-08
-4.98932e-10
-1.66313e-12
-1.07467e-15
3.95591e-18
4.12122e-18
4.12394e-18
4.12457e-18
4.12464e-18
4.12472e-18
4.1256e-18
4.13133e-18
4.13931e-18
4.21057e-18
4.27809e-18
5.02092e-18
5.45492e-18
1.66393e-17
1.95314e-17
-4.42708e-07
-3.27904e-08
-4.98823e-10
-1.66284e-12
-1.07449e-15
3.95594e-18
4.12122e-18
4.12394e-18
4.12457e-18
4.12464e-18
4.12471e-18
4.1256e-18
4.13133e-18
4.13931e-18
4.21057e-18
4.27809e-18
5.0209e-18
5.4549e-18
1.66392e-17
1.95313e-17
-4.38476e-07
-3.25154e-08
-4.95241e-10
-1.65154e-12
-1.06668e-15
3.95707e-18
4.12122e-18
4.12394e-18
4.12456e-18
4.12464e-18
4.12466e-18
4.12546e-18
4.13118e-18
4.13915e-18
4.21036e-18
4.27784e-18
5.02033e-18
5.45427e-18
1.66359e-17
1.95283e-17
-4.373e-07
-3.24355e-08
-4.94057e-10
-1.64734e-12
-1.0636e-15
3.95753e-18
4.12122e-18
4.12393e-18
4.12456e-18
4.12463e-18
4.12465e-18
4.12543e-18
4.13114e-18
4.13911e-18
4.21029e-18
4.27777e-18
5.02013e-18
5.45406e-18
1.66348e-17
1.95272e-17
-3.9522e-07
-2.90779e-08
-4.31906e-10
-1.39908e-12
-8.74497e-16
3.9852e-18
4.12131e-18
4.12398e-18
4.12461e-18
4.12471e-18
4.12502e-18
4.12595e-18
4.13157e-18
4.13943e-18
4.20962e-18
4.27642e-18
5.01078e-18
5.44212e-18
1.65121e-17
1.93787e-17
-2.22579e-05
-2.39212e-06
-4.78311e-08
-1.84263e-10
-1.32279e-13