/*--------------------------------*- C++ -*----------------------------------*\
  =========                 |
  \\      /  F ield         | OpenFOAM: The Open Source CFD Toolbox
   \\    /   O peration     | Website:  https://openfoam.org
    \\  /    A nd           | Version:  8
     \\/     M anipulation  |
\*---------------------------------------------------------------------------*/
FoamFile
{
    version     2.0;
    format      ascii;
    class       volScalarField;
    location    "0.1";
    object      H2;
}
// * * * * * * * * * * * * * * * * * * * * * * * * * * * * * * * * * * * * * //

dimensions      [0 1 -1 0 0 0 0];

internalField   nonuniform List<scalar> 
180000
(
-1.25843e-55
-4.0863e-50
-1.15657e-44
-2.97334e-39
-8.32683e-34
-1.25507e-55
-4.07542e-50
-1.15369e-44
-2.96749e-39
-8.31932e-34
-1.25499e-55
-4.0752e-50
-1.15364e-44
-2.96741e-39
-8.31922e-34
-1.25482e-55
-4.07471e-50
-1.15353e-44
-2.96722e-39
-8.31897e-34
-1.25481e-55
-4.07467e-50
-1.15352e-44
-2.9672e-39
-8.31896e-34
-1.25479e-55
-4.07463e-50
-1.15351e-44
-2.96719e-39
-8.31894e-34
-1.25479e-55
-4.07462e-50
-1.15351e-44
-2.96719e-39
-8.31894e-34
-1.25479e-55
-4.07462e-50
-1.15351e-44
-2.96719e-39
-8.31893e-34
-1.25479e-55
-4.07461e-50
-1.15351e-44
-2.96719e-39
-8.31893e-34
-1.25479e-55
-4.07461e-50
-1.15351e-44
-2.96719e-39
-8.31893e-34
-1.25479e-55
-4.07461e-50
-1.15351e-44
-2.96719e-39
-8.31893e-34
-1.25479e-55
-4.07461e-50
-1.15351e-44
-2.96719e-39
-8.31893e-34
-1.25479e-55
-4.07462e-50
-1.15351e-44
-2.96719e-39
-8.31893e-34
-1.25479e-55
-4.07462e-50
-1.15351e-44
-2.96719e-39
-8.31894e-34
-1.25479e-55
-4.07463e-50
-1.15351e-44
-2.96719e-39
-8.31894e-34
-1.25481e-55
-4.07467e-50
-1.15352e-44
-2.9672e-39
-8.31896e-34
-1.25482e-55
-4.07471e-50
-1.15353e-44
-2.96722e-39
-8.31897e-34
-1.25499e-55
-4.0752e-50
-1.15364e-44
-2.96741e-39
-8.31922e-34
-1.25507e-55
-4.07542e-50
-1.15369e-44
-2.96749e-39
-8.31932e-34
-1.25843e-55
-4.0863e-50
-1.15657e-44
-2.97334e-39
-8.32683e-34
-1.1316e-52
-3.64763e-47
-1.01803e-41
-2.40196e-36
-8.06633e-31
-1.12728e-52
-3.63347e-47
-1.01418e-41
-2.3937e-36
-8.05253e-31
-1.12719e-52
-3.63322e-47
-1.01412e-41
-2.39361e-36
-8.05241e-31
-1.12699e-52
-3.6326e-47
-1.01398e-41
-2.39336e-36
-8.05203e-31
-1.12697e-52
-3.63256e-47
-1.01397e-41
-2.39334e-36
-8.05201e-31
-1.12696e-52
-3.63251e-47
-1.01395e-41
-2.39332e-36
-8.05199e-31
-1.12695e-52
-3.6325e-47
-1.01395e-41
-2.39332e-36
-8.05199e-31
-1.12695e-52
-3.63249e-47
-1.01395e-41
-2.39332e-36
-8.05198e-31
-1.12695e-52
-3.63249e-47
-1.01395e-41
-2.39332e-36
-8.05198e-31
-1.12695e-52
-3.63249e-47
-1.01395e-41
-2.39332e-36
-8.05198e-31
-1.12695e-52
-3.63249e-47
-1.01395e-41
-2.39332e-36
-8.05198e-31
-1.12695e-52
-3.63249e-47
-1.01395e-41
-2.39332e-36
-8.05198e-31
-1.12695e-52
-3.63249e-47
-1.01395e-41
-2.39332e-36
-8.05198e-31
-1.12695e-52
-3.6325e-47
-1.01395e-41
-2.39332e-36
-8.05199e-31
-1.12696e-52
-3.63251e-47
-1.01395e-41
-2.39332e-36
-8.05199e-31
-1.12697e-52
-3.63256e-47
-1.01397e-41
-2.39334e-36
-8.05201e-31
-1.12699e-52
-3.6326e-47
-1.01398e-41
-2.39336e-36
-8.05203e-31
-1.12719e-52
-3.63322e-47
-1.01412e-41
-2.39361e-36
-8.05241e-31
-1.12728e-52
-3.63347e-47
-1.01418e-41
-2.3937e-36
-8.05253e-31
-1.1316e-52
-3.64763e-47
-1.01803e-41
-2.40196e-36
-8.06633e-31
-1.55494e-49
-5.13806e-44
-1.47299e-38
-3.56717e-33
-1.19207e-27
-1.54908e-49
-5.11841e-44
-1.46752e-38
-3.55509e-33
-1.19005e-27
-1.54897e-49
-5.11807e-44
-1.46744e-38
-3.55496e-33
-1.19004e-27
-1.54869e-49
-5.11723e-44
-1.46723e-38
-3.5546e-33
-1.18998e-27
-1.54867e-49
-5.11717e-44
-1.46722e-38
-3.55458e-33
-1.18998e-27
-1.54865e-49
-5.11711e-44
-1.46721e-38
-3.55455e-33
-1.18998e-27
-1.54865e-49
-5.11709e-44
-1.4672e-38
-3.55455e-33
-1.18998e-27
-1.54864e-49
-5.11709e-44
-1.4672e-38
-3.55455e-33
-1.18998e-27
-1.54864e-49
-5.11709e-44
-1.4672e-38
-3.55455e-33
-1.18998e-27
-1.54864e-49
-5.11708e-44
-1.4672e-38
-3.55455e-33
-1.18998e-27
-1.54864e-49
-5.11708e-44
-1.4672e-38
-3.55455e-33
-1.18998e-27
-1.54864e-49
-5.11709e-44
-1.4672e-38
-3.55455e-33
-1.18998e-27
-1.54864e-49
-5.11709e-44
-1.4672e-38
-3.55455e-33
-1.18998e-27
-1.54865e-49
-5.11709e-44
-1.4672e-38
-3.55455e-33
-1.18998e-27
-1.54865e-49
-5.11711e-44
-1.46721e-38
-3.55455e-33
-1.18998e-27
-1.54867e-49
-5.11717e-44
-1.46722e-38
-3.55458e-33
-1.18998e-27
-1.54869e-49
-5.11723e-44
-1.46723e-38
-3.5546e-33
-1.18998e-27
-1.54897e-49
-5.11807e-44
-1.46744e-38
-3.55496e-33
-1.19004e-27
-1.54908e-49
-5.11841e-44
-1.46752e-38
-3.55509e-33
-1.19006e-27
-1.55494e-49
-5.13806e-44
-1.47299e-38
-3.56717e-33
-1.19207e-27
-1.90958e-46
-6.48845e-41
-1.91937e-35
-4.80167e-30
-1.60072e-24
-1.90249e-46
-6.46408e-41
-1.9124e-35
-4.78579e-30
-1.59807e-24
-1.90236e-46
-6.46367e-41
-1.9123e-35
-4.78562e-30
-1.59805e-24
-1.90204e-46
-6.46266e-41
-1.91205e-35
-4.78515e-30
-1.59798e-24
-1.90201e-46
-6.46259e-41
-1.91203e-35
-4.78512e-30
-1.59798e-24
-1.90198e-46
-6.46251e-41
-1.91201e-35
-4.78509e-30
-1.59797e-24
-1.90198e-46
-6.46249e-41
-1.91201e-35
-4.78508e-30
-1.59797e-24
-1.90198e-46
-6.46248e-41
-1.91201e-35
-4.78508e-30
-1.59797e-24
-1.90198e-46
-6.46248e-41
-1.91201e-35
-4.78508e-30
-1.59797e-24
-1.90198e-46
-6.46248e-41
-1.912e-35
-4.78508e-30
-1.59797e-24
-1.90198e-46
-6.46248e-41
-1.912e-35
-4.78508e-30
-1.59797e-24
-1.90198e-46
-6.46248e-41
-1.91201e-35
-4.78508e-30
-1.59797e-24
-1.90198e-46
-6.46248e-41
-1.91201e-35
-4.78508e-30
-1.59797e-24
-1.90198e-46
-6.46249e-41
-1.91201e-35
-4.78508e-30
-1.59797e-24
-1.90198e-46
-6.46251e-41
-1.91201e-35
-4.78509e-30
-1.59797e-24
-1.90201e-46
-6.46259e-41
-1.91203e-35
-4.78512e-30
-1.59798e-24
-1.90204e-46
-6.46266e-41
-1.91205e-35
-4.78515e-30
-1.59798e-24
-1.90236e-46
-6.46367e-41
-1.9123e-35
-4.78562e-30
-1.59805e-24
-1.90249e-46
-6.46408e-41
-1.9124e-35
-4.78579e-30
-1.59807e-24
-1.90958e-46
-6.48845e-41
-1.91937e-35
-4.80167e-30
-1.60072e-24
-2.05665e-43
-7.21162e-38
-2.21196e-32
-5.76171e-27
-1.92457e-21
-2.04914e-43
-7.1851e-38
-2.20414e-32
-5.74325e-27
-1.92149e-21
-2.049e-43
-7.18467e-38
-2.20403e-32
-5.74306e-27
-1.92147e-21
-2.04867e-43
-7.1836e-38
-2.20376e-32
-5.74252e-27
-1.92138e-21
-2.04864e-43
-7.18352e-38
-2.20374e-32
-5.74249e-27
-1.92138e-21
-2.04861e-43
-7.18343e-38
-2.20372e-32
-5.74245e-27
-1.92137e-21
-2.04861e-43
-7.18342e-38
-2.20371e-32
-5.74244e-27
-1.92137e-21
-2.04861e-43
-7.18341e-38
-2.20371e-32
-5.74244e-27
-1.92137e-21
-2.04861e-43
-7.18341e-38
-2.20371e-32
-5.74244e-27
-1.92137e-21
-2.0486e-43
-7.1834e-38
-2.20371e-32
-5.74244e-27
-1.92137e-21
-2.0486e-43
-7.1834e-38
-2.20371e-32
-5.74244e-27
-1.92137e-21
-2.04861e-43
-7.18341e-38
-2.20371e-32
-5.74244e-27
-1.92137e-21
-2.04861e-43
-7.18341e-38
-2.20371e-32
-5.74244e-27
-1.92137e-21
-2.04861e-43
-7.18342e-38
-2.20371e-32
-5.74244e-27
-1.92137e-21
-2.04861e-43
-7.18343e-38
-2.20372e-32
-5.74245e-27
-1.92137e-21
-2.04864e-43
-7.18352e-38
-2.20374e-32
-5.74249e-27
-1.92138e-21
-2.04867e-43
-7.1836e-38
-2.20376e-32
-5.74252e-27
-1.92138e-21
-2.049e-43
-7.18467e-38
-2.20403e-32
-5.74306e-27
-1.92147e-21
-2.04914e-43
-7.1851e-38
-2.20414e-32
-5.74325e-27
-1.92149e-21
-2.05665e-43
-7.21162e-38
-2.21196e-32
-5.76171e-27
-1.92457e-21
-1.89425e-40
-6.88531e-35
-2.20339e-29
-6.03102e-24
-2.0333e-18
-1.88747e-40
-6.86064e-35
-2.19586e-29
-6.01254e-24
-2.03022e-18
-1.88735e-40
-6.86025e-35
-2.19577e-29
-6.01236e-24
-2.0302e-18
-1.88706e-40
-6.85929e-35
-2.19551e-29
-6.01182e-24
-2.03012e-18
-1.88703e-40
-6.85922e-35
-2.19549e-29
-6.01179e-24
-2.03011e-18
-1.88701e-40
-6.85913e-35
-2.19547e-29
-6.01175e-24
-2.0301e-18
-1.887e-40
-6.85912e-35
-2.19547e-29
-6.01174e-24
-2.0301e-18
-1.887e-40
-6.85911e-35
-2.19546e-29
-6.01174e-24
-2.0301e-18
-1.887e-40
-6.85911e-35
-2.19546e-29
-6.01174e-24
-2.0301e-18
-1.887e-40
-6.85911e-35
-2.19546e-29
-6.01174e-24
-2.0301e-18
-1.887e-40
-6.85911e-35
-2.19546e-29
-6.01174e-24
-2.0301e-18
-1.887e-40
-6.85911e-35
-2.19546e-29
-6.01174e-24
-2.0301e-18
-1.887e-40
-6.85911e-35
-2.19546e-29
-6.01174e-24
-2.0301e-18
-1.887e-40
-6.85912e-35
-2.19547e-29
-6.01174e-24
-2.0301e-18
-1.88701e-40
-6.85913e-35
-2.19547e-29
-6.01175e-24
-2.0301e-18
-1.88703e-40
-6.85922e-35
-2.19549e-29
-6.01179e-24
-2.03011e-18
-1.88706e-40
-6.85929e-35
-2.19551e-29
-6.01182e-24
-2.03012e-18
-1.88735e-40
-6.86025e-35
-2.19577e-29
-6.01236e-24
-2.0302e-18
-1.88747e-40
-6.86064e-35
-2.19586e-29
-6.01254e-24
-2.03022e-18
-1.89425e-40
-6.88531e-35
-2.20339e-29
-6.03102e-24
-2.0333e-18
-1.43814e-37
-5.45127e-32
-1.83534e-26
-5.34257e-21
-1.84003e-15
-1.43311e-37
-5.43236e-32
-1.82935e-26
-5.3272e-21
-1.83749e-15
-1.43303e-37
-5.43207e-32
-1.82927e-26
-5.32704e-21
-1.83747e-15
-1.43282e-37
-5.43136e-32
-1.82907e-26
-5.3266e-21
-1.83739e-15
-1.4328e-37
-5.4313e-32
-1.82906e-26
-5.32657e-21
-1.83739e-15
-1.43278e-37
-5.43124e-32
-1.82904e-26
-5.32653e-21
-1.83738e-15
-1.43278e-37
-5.43122e-32
-1.82904e-26
-5.32653e-21
-1.83738e-15
-1.43278e-37
-5.43122e-32
-1.82903e-26
-5.32652e-21
-1.83738e-15
-1.43278e-37
-5.43122e-32
-1.82903e-26
-5.32652e-21
-1.83738e-15
-1.43278e-37
-5.43121e-32
-1.82903e-26
-5.32652e-21
-1.83738e-15
-1.43278e-37
-5.43121e-32
-1.82903e-26
-5.32652e-21
-1.83738e-15
-1.43278e-37
-5.43122e-32
-1.82903e-26
-5.32652e-21
-1.83738e-15
-1.43278e-37
-5.43122e-32
-1.82903e-26
-5.32652e-21
-1.83738e-15
-1.43278e-37
-5.43122e-32
-1.82904e-26
-5.32653e-21
-1.83738e-15
-1.43278e-37
-5.43124e-32
-1.82904e-26
-5.32653e-21
-1.83738e-15
-1.4328e-37
-5.4313e-32
-1.82906e-26
-5.32657e-21
-1.83739e-15
-1.43282e-37
-5.43136e-32
-1.82907e-26
-5.3266e-21
-1.83739e-15
-1.43303e-37
-5.43207e-32
-1.82927e-26
-5.32704e-21
-1.83747e-15
-1.43311e-37
-5.43236e-32
-1.82935e-26
-5.3272e-21
-1.83749e-15
-1.43814e-37
-5.45127e-32
-1.83534e-26
-5.34257e-21
-1.84003e-15
-8.48576e-35
-3.38236e-29
-1.21251e-23
-3.81987e-18
-1.37231e-12
-8.45697e-35
-3.37111e-29
-1.20878e-23
-3.80982e-18
-1.37067e-12
-8.45649e-35
-3.37094e-29
-1.20874e-23
-3.80972e-18
-1.37066e-12
-8.45534e-35
-3.37053e-29
-1.20861e-23
-3.80943e-18
-1.3706e-12
-8.45525e-35
-3.37049e-29
-1.20861e-23
-3.80941e-18
-1.3706e-12
-8.45514e-35
-3.37045e-29
-1.20859e-23
-3.80938e-18
-1.3706e-12
-8.45512e-35
-3.37045e-29
-1.20859e-23
-3.80938e-18
-1.37059e-12
-8.45511e-35
-3.37044e-29
-1.20859e-23
-3.80938e-18
-1.37059e-12
-8.4551e-35
-3.37044e-29
-1.20859e-23
-3.80937e-18
-1.37059e-12
-8.4551e-35
-3.37044e-29
-1.20859e-23
-3.80937e-18
-1.37059e-12
-8.4551e-35
-3.37044e-29
-1.20859e-23
-3.80937e-18
-1.37059e-12
-8.4551e-35
-3.37044e-29
-1.20859e-23
-3.80937e-18
-1.37059e-12
-8.45511e-35
-3.37044e-29
-1.20859e-23
-3.80938e-18
-1.37059e-12
-8.45512e-35
-3.37045e-29
-1.20859e-23
-3.80938e-18
-1.37059e-12
-8.45514e-35
-3.37045e-29
-1.20859e-23
-3.80938e-18
-1.3706e-12
-8.45525e-35
-3.37049e-29
-1.20861e-23
-3.80941e-18
-1.3706e-12
-8.45534e-35
-3.37053e-29
-1.20861e-23
-3.80943e-18
-1.3706e-12
-8.45649e-35
-3.37094e-29
-1.20874e-23
-3.80972e-18
-1.37066e-12
-8.45697e-35
-3.37111e-29
-1.20878e-23
-3.80982e-18
-1.37067e-12
-8.48576e-35
-3.38236e-29
-1.21251e-23
-3.81987e-18
-1.37231e-12
-3.48842e-32
-1.48013e-26
-5.75414e-21
-2.01802e-15
-7.86724e-10
-3.47703e-32
-1.47548e-26
-5.73788e-21
-2.01339e-15
-7.86013e-10
-3.47685e-32
-1.47541e-26
-5.73769e-21
-2.01334e-15
-7.86006e-10
-3.47641e-32
-1.47524e-26
-5.73715e-21
-2.0132e-15
-7.85977e-10
-3.47637e-32
-1.47523e-26
-5.73711e-21
-2.01319e-15
-7.85976e-10
-3.47633e-32
-1.47521e-26
-5.73706e-21
-2.01318e-15
-7.85973e-10
-3.47632e-32
-1.47521e-26
-5.73705e-21
-2.01318e-15
-7.85973e-10
-3.47632e-32
-1.47521e-26
-5.73705e-21
-2.01318e-15
-7.85973e-10
-3.47632e-32
-1.47521e-26
-5.73704e-21
-2.01318e-15
-7.85973e-10
-3.47631e-32
-1.47521e-26
-5.73704e-21
-2.01318e-15
-7.85973e-10
-3.47631e-32
-1.47521e-26
-5.73704e-21
-2.01318e-15
-7.85973e-10
-3.47632e-32
-1.47521e-26
-5.73704e-21
-2.01318e-15
-7.85973e-10
-3.47632e-32
-1.47521e-26
-5.73705e-21
-2.01318e-15
-7.85973e-10
-3.47632e-32
-1.47521e-26
-5.73705e-21
-2.01318e-15
-7.85973e-10
-3.47633e-32
-1.47521e-26
-5.73706e-21
-2.01318e-15
-7.85973e-10
-3.47637e-32
-1.47523e-26
-5.73711e-21
-2.01319e-15
-7.85976e-10
-3.47641e-32
-1.47524e-26
-5.73715e-21
-2.0132e-15
-7.85977e-10
-3.47685e-32
-1.47541e-26
-5.73769e-21
-2.01334e-15
-7.86006e-10
-3.47703e-32
-1.47548e-26
-5.73788e-21
-2.01339e-15
-7.86013e-10
-3.48842e-32
-1.48013e-26
-5.75414e-21
-2.01802e-15
-7.86724e-10
-7.60218e-30
-3.4987e-24
-1.52007e-18
-6.24308e-13
-2.88102e-07
-7.57867e-30
-3.48855e-24
-1.5163e-18
-6.23172e-13
-2.87971e-07
-7.57831e-30
-3.48841e-24
-1.51625e-18
-6.2316e-13
-2.87969e-07
-7.57741e-30
-3.48804e-24
-1.51612e-18
-6.2312e-13
-2.87959e-07
-7.57733e-30
-3.48801e-24
-1.51611e-18
-6.23117e-13
-2.87958e-07
-7.57725e-30
-3.48798e-24
-1.5161e-18
-6.23114e-13
-2.87957e-07
-7.57723e-30
-3.48797e-24
-1.5161e-18
-6.23113e-13
-2.87957e-07
-7.57722e-30
-3.48797e-24
-1.5161e-18
-6.23113e-13
-2.87957e-07
-7.57722e-30
-3.48797e-24
-1.5161e-18
-6.23113e-13
-2.87957e-07
-7.57722e-30
-3.48797e-24
-1.5161e-18
-6.23113e-13
-2.87957e-07
-7.57722e-30
-3.48797e-24
-1.5161e-18
-6.23113e-13
-2.87957e-07
-7.57722e-30
-3.48797e-24
-1.5161e-18
-6.23113e-13
-2.87957e-07
-7.57722e-30
-3.48797e-24
-1.5161e-18
-6.23113e-13
-2.87957e-07
-7.57723e-30
-3.48797e-24
-1.5161e-18
-6.23113e-13
-2.87957e-07
-7.57725e-30
-3.48798e-24
-1.5161e-18
-6.23114e-13
-2.87957e-07
-7.57733e-30
-3.48801e-24
-1.51611e-18
-6.23117e-13
-2.87958e-07
-7.57741e-30
-3.48804e-24
-1.51612e-18
-6.2312e-13
-2.87959e-07
-7.57831e-30
-3.48841e-24
-1.51625e-18
-6.2316e-13
-2.87969e-07
-7.57867e-30
-3.48855e-24
-1.5163e-18
-6.23172e-13
-2.87971e-07
-7.60218e-30
-3.4987e-24
-1.52007e-18
-6.24308e-13
-2.88102e-07
-1.66711e-29
-7.12267e-24
-2.6799e-18
-8.42382e-13
-2.02966e-07
-1.66435e-29
-7.11209e-24
-2.67681e-18
-8.41829e-13
-2.03049e-07
-1.6643e-29
-7.1119e-24
-2.67676e-18
-8.41817e-13
-2.03048e-07
-1.66418e-29
-7.11146e-24
-2.67663e-18
-8.41785e-13
-2.03045e-07
-1.66417e-29
-7.11142e-24
-2.67662e-18
-8.41783e-13
-2.03044e-07
-1.66416e-29
-7.11137e-24
-2.6766e-18
-8.4178e-13
-2.03044e-07
-1.66416e-29
-7.11137e-24
-2.6766e-18
-8.41779e-13
-2.03044e-07
-1.66416e-29
-7.11136e-24
-2.6766e-18
-8.41779e-13
-2.03044e-07
-1.66416e-29
-7.11136e-24
-2.6766e-18
-8.41779e-13
-2.03044e-07
-1.66416e-29
-7.11136e-24
-2.6766e-18
-8.41779e-13
-2.03044e-07
-1.66416e-29
-7.11136e-24
-2.6766e-18
-8.41779e-13
-2.03044e-07
-1.66416e-29
-7.11136e-24
-2.6766e-18
-8.41779e-13
-2.03044e-07
-1.66416e-29
-7.11136e-24
-2.6766e-18
-8.41779e-13
-2.03044e-07
-1.66416e-29
-7.11137e-24
-2.6766e-18
-8.41779e-13
-2.03044e-07
-1.66416e-29
-7.11137e-24
-2.6766e-18
-8.4178e-13
-2.03044e-07
-1.66417e-29
-7.11142e-24
-2.67662e-18
-8.41783e-13
-2.03044e-07
-1.66418e-29
-7.11146e-24
-2.67663e-18
-8.41785e-13
-2.03045e-07
-1.6643e-29
-7.1119e-24
-2.67676e-18
-8.41817e-13
-2.03048e-07
-1.66435e-29
-7.11209e-24
-2.67681e-18
-8.41829e-13
-2.03049e-07
-1.66711e-29
-7.12267e-24
-2.6799e-18
-8.42382e-13
-2.02966e-07
-1.92956e-29
-7.88169e-24
-2.72128e-18
-7.40938e-13
-1.27866e-07
-1.92916e-29
-7.88124e-24
-2.72187e-18
-7.41393e-13
-1.28047e-07
-1.92914e-29
-7.88116e-24
-2.72185e-18
-7.41389e-13
-1.28047e-07
-1.92909e-29
-7.88098e-24
-2.72181e-18
-7.41381e-13
-1.28047e-07
-1.92908e-29
-7.88097e-24
-2.7218e-18
-7.4138e-13
-1.28047e-07
-1.92908e-29
-7.88095e-24
-2.7218e-18
-7.4138e-13
-1.28047e-07
-1.92908e-29
-7.88095e-24
-2.7218e-18
-7.4138e-13
-1.28047e-07
-1.92907e-29
-7.88095e-24
-2.7218e-18
-7.4138e-13
-1.28047e-07
-1.92907e-29
-7.88094e-24
-2.7218e-18
-7.4138e-13
-1.28047e-07
-1.92907e-29
-7.88094e-24
-2.7218e-18
-7.4138e-13
-1.28047e-07
-1.92907e-29
-7.88094e-24
-2.7218e-18
-7.4138e-13
-1.28047e-07
-1.92907e-29
-7.88094e-24
-2.7218e-18
-7.4138e-13
-1.28047e-07
-1.92907e-29
-7.88095e-24
-2.7218e-18
-7.4138e-13
-1.28047e-07
-1.92908e-29
-7.88095e-24
-2.7218e-18
-7.4138e-13
-1.28047e-07
-1.92908e-29
-7.88095e-24
-2.7218e-18
-7.4138e-13
-1.28047e-07
-1.92908e-29
-7.88097e-24
-2.7218e-18
-7.4138e-13
-1.28047e-07
-1.92909e-29
-7.88098e-24
-2.72181e-18
-7.41381e-13
-1.28047e-07
-1.92914e-29
-7.88116e-24
-2.72185e-18
-7.41389e-13
-1.28047e-07
-1.92916e-29
-7.88124e-24
-2.72187e-18
-7.41393e-13
-1.28047e-07
-1.92956e-29
-7.88169e-24
-2.72128e-18
-7.40938e-13
-1.27866e-07
-1.54917e-29
-6.16e-24
-2.01725e-18
-5.06764e-13
-7.17757e-08
-1.5511e-29
-6.16854e-24
-2.02051e-18
-5.07752e-13
-7.19581e-08
-1.55111e-29
-6.16857e-24
-2.02051e-18
-5.07754e-13
-7.19582e-08
-1.55113e-29
-6.16867e-24
-2.02055e-18
-5.07763e-13
-7.19597e-08
-1.55113e-29
-6.16867e-24
-2.02055e-18
-5.07763e-13
-7.19597e-08
-1.55114e-29
-6.16869e-24
-2.02055e-18
-5.07764e-13
-7.19599e-08
-1.55114e-29
-6.16869e-24
-2.02055e-18
-5.07765e-13
-7.19599e-08
-1.55114e-29
-6.16869e-24
-2.02055e-18
-5.07765e-13
-7.196e-08
-1.55114e-29
-6.16869e-24
-2.02055e-18
-5.07765e-13
-7.196e-08
-1.55114e-29
-6.16869e-24
-2.02055e-18
-5.07765e-13
-7.196e-08
-1.55114e-29
-6.16869e-24
-2.02055e-18
-5.07765e-13
-7.196e-08
-1.55114e-29
-6.16869e-24
-2.02055e-18
-5.07765e-13
-7.196e-08
-1.55114e-29
-6.16869e-24
-2.02055e-18
-5.07765e-13
-7.196e-08
-1.55114e-29
-6.16869e-24
-2.02055e-18
-5.07765e-13
-7.19599e-08
-1.55114e-29
-6.16869e-24
-2.02055e-18
-5.07764e-13
-7.19599e-08
-1.55113e-29
-6.16867e-24
-2.02055e-18
-5.07763e-13
-7.19597e-08
-1.55113e-29
-6.16867e-24
-2.02055e-18
-5.07763e-13
-7.19597e-08
-1.55111e-29
-6.16857e-24
-2.02051e-18
-5.07754e-13
-7.19582e-08
-1.5511e-29
-6.16854e-24
-2.02051e-18
-5.07752e-13
-7.19581e-08
-1.54917e-29
-6.16e-24
-2.01725e-18
-5.06764e-13
-7.17757e-08
-9.62932e-30
-3.77183e-24
-1.19609e-18
-2.87662e-13
-3.60329e-08
-9.65535e-30
-3.78254e-24
-1.19972e-18
-2.88618e-13
-3.61684e-08
-9.65555e-30
-3.78261e-24
-1.19973e-18
-2.88622e-13
-3.61686e-08
-9.65608e-30
-3.7828e-24
-1.19979e-18
-2.88634e-13
-3.617e-08
-9.65613e-30
-3.78282e-24
-1.1998e-18
-2.88635e-13
-3.61701e-08
-9.6562e-30
-3.78285e-24
-1.1998e-18
-2.88637e-13
-3.61703e-08
-9.65621e-30
-3.78285e-24
-1.1998e-18
-2.88637e-13
-3.61703e-08
-9.65621e-30
-3.78285e-24
-1.1998e-18
-2.88637e-13
-3.61703e-08
-9.65622e-30
-3.78285e-24
-1.1998e-18
-2.88637e-13
-3.61703e-08
-9.65622e-30
-3.78285e-24
-1.1998e-18
-2.88637e-13
-3.61703e-08
-9.65622e-30
-3.78285e-24
-1.1998e-18
-2.88637e-13
-3.61703e-08
-9.65622e-30
-3.78285e-24
-1.1998e-18
-2.88637e-13
-3.61703e-08
-9.65621e-30
-3.78285e-24
-1.1998e-18
-2.88637e-13
-3.61703e-08
-9.65621e-30
-3.78285e-24
-1.1998e-18
-2.88637e-13
-3.61703e-08
-9.6562e-30
-3.78285e-24
-1.1998e-18
-2.88637e-13
-3.61703e-08
-9.65613e-30
-3.78282e-24
-1.1998e-18
-2.88635e-13
-3.61701e-08
-9.65608e-30
-3.7828e-24
-1.19979e-18
-2.88634e-13
-3.617e-08
-9.65555e-30
-3.78261e-24
-1.19973e-18
-2.88621e-13
-3.61686e-08
-9.65535e-30
-3.78254e-24
-1.19972e-18
-2.88618e-13
-3.61684e-08
-9.62932e-30
-3.77183e-24
-1.19609e-18
-2.87662e-13
-3.60329e-08
-4.91798e-30
-1.91349e-24
-5.95964e-19
-1.4056e-13
-1.62826e-08
-4.93849e-30
-1.92172e-24
-5.98628e-19
-1.41225e-13
-1.63648e-08
-4.93867e-30
-1.92178e-24
-5.98644e-19
-1.41228e-13
-1.6365e-08
-4.93912e-30
-1.92195e-24
-5.98689e-19
-1.41238e-13
-1.63659e-08
-4.93917e-30
-1.92196e-24
-5.98693e-19
-1.41239e-13
-1.6366e-08
-4.93922e-30
-1.92198e-24
-5.98699e-19
-1.4124e-13
-1.63661e-08
-4.93923e-30
-1.92199e-24
-5.987e-19
-1.4124e-13
-1.63662e-08
-4.93924e-30
-1.92199e-24
-5.987e-19
-1.4124e-13
-1.63662e-08
-4.93924e-30
-1.92199e-24
-5.987e-19
-1.4124e-13
-1.63662e-08
-4.93924e-30
-1.92199e-24
-5.987e-19
-1.4124e-13
-1.63662e-08
-4.93924e-30
-1.92199e-24
-5.987e-19
-1.4124e-13
-1.63662e-08
-4.93924e-30
-1.92199e-24
-5.987e-19
-1.4124e-13
-1.63662e-08
-4.93924e-30
-1.92199e-24
-5.987e-19
-1.4124e-13
-1.63662e-08
-4.93923e-30
-1.92199e-24
-5.987e-19
-1.4124e-13
-1.63662e-08
-4.93922e-30
-1.92198e-24
-5.98699e-19
-1.4124e-13
-1.63661e-08
-4.93917e-30
-1.92196e-24
-5.98693e-19
-1.41239e-13
-1.6366e-08
-4.93912e-30
-1.92195e-24
-5.98689e-19
-1.41238e-13
-1.63659e-08
-4.93867e-30
-1.92178e-24
-5.98644e-19
-1.41228e-13
-1.6365e-08
-4.93849e-30
-1.92172e-24
-5.98628e-19
-1.41225e-13
-1.63648e-08
-4.91798e-30
-1.91349e-24
-5.95964e-19
-1.4056e-13
-1.62826e-08
-2.14248e-30
-8.33116e-25
-2.57511e-19
-6.05901e-14
-6.67211e-09
-2.15458e-30
-8.37931e-25
-2.59035e-19
-6.09626e-14
-6.71477e-09
-2.15469e-30
-8.37969e-25
-2.59045e-19
-6.09646e-14
-6.71489e-09
-2.15496e-30
-8.38065e-25
-2.59071e-19
-6.09702e-14
-6.71536e-09
-2.15499e-30
-8.38075e-25
-2.59074e-19
-6.09708e-14
-6.71541e-09
-2.15502e-30
-8.38087e-25
-2.59077e-19
-6.09715e-14
-6.71547e-09
-2.15503e-30
-8.38089e-25
-2.59078e-19
-6.09716e-14
-6.71548e-09
-2.15503e-30
-8.3809e-25
-2.59078e-19
-6.09717e-14
-6.71549e-09
-2.15503e-30
-8.38091e-25
-2.59078e-19
-6.09717e-14
-6.71549e-09
-2.15503e-30
-8.38091e-25
-2.59078e-19
-6.09717e-14
-6.7155e-09
-2.15503e-30
-8.38091e-25
-2.59078e-19
-6.09717e-14
-6.7155e-09
-2.15503e-30
-8.38091e-25
-2.59078e-19
-6.09717e-14
-6.71549e-09
-2.15503e-30
-8.3809e-25
-2.59078e-19
-6.09717e-14
-6.71549e-09
-2.15503e-30
-8.38089e-25
-2.59078e-19
-6.09716e-14
-6.71548e-09
-2.15502e-30
-8.38087e-25
-2.59077e-19
-6.09715e-14
-6.71547e-09
-2.15499e-30
-8.38075e-25
-2.59074e-19
-6.09708e-14
-6.71541e-09
-2.15496e-30
-8.38065e-25
-2.59071e-19
-6.09702e-14
-6.71536e-09
-2.15469e-30
-8.37969e-25
-2.59045e-19
-6.09646e-14
-6.71489e-09
-2.15458e-30
-8.37931e-25
-2.59035e-19
-6.09626e-14
-6.71477e-09
-2.14248e-30
-8.33116e-25
-2.57511e-19
-6.05901e-14
-6.67211e-09
-8.16897e-31
-3.18988e-25
-9.86437e-20
-2.34572e-14
-2.49795e-09
-8.22731e-31
-3.21306e-25
-9.93721e-20
-2.36353e-14
-2.51739e-09
-8.22784e-31
-3.21325e-25
-9.93768e-20
-2.36362e-14
-2.51744e-09
-8.2291e-31
-3.21371e-25
-9.93892e-20
-2.36389e-14
-2.51765e-09
-8.22925e-31
-3.21376e-25
-9.93905e-20
-2.36392e-14
-2.51768e-09
-8.2294e-31
-3.21381e-25
-9.93921e-20
-2.36395e-14
-2.51771e-09
-8.22943e-31
-3.21382e-25
-9.93924e-20
-2.36395e-14
-2.51771e-09
-8.22945e-31
-3.21383e-25
-9.93926e-20
-2.36396e-14
-2.51772e-09
-8.22946e-31
-3.21383e-25
-9.93926e-20
-2.36396e-14
-2.51772e-09
-8.22946e-31
-3.21383e-25
-9.93926e-20
-2.36396e-14
-2.51772e-09
-8.22946e-31
-3.21383e-25
-9.93926e-20
-2.36396e-14
-2.51772e-09
-8.22946e-31
-3.21383e-25
-9.93926e-20
-2.36396e-14
-2.51772e-09
-8.22945e-31
-3.21383e-25
-9.93926e-20
-2.36396e-14
-2.51772e-09
-8.22943e-31
-3.21382e-25
-9.93924e-20
-2.36395e-14
-2.51771e-09
-8.2294e-31
-3.21381e-25
-9.93921e-20
-2.36395e-14
-2.51771e-09
-8.22925e-31
-3.21376e-25
-9.93905e-20
-2.36392e-14
-2.51768e-09
-8.2291e-31
-3.21371e-25
-9.93892e-20
-2.36389e-14
-2.51765e-09
-8.22784e-31
-3.21325e-25
-9.93768e-20
-2.36362e-14
-2.51744e-09
-8.22731e-31
-3.21306e-25
-9.93721e-20
-2.36352e-14
-2.51738e-09
-8.16897e-31
-3.18988e-25
-9.86437e-20
-2.34572e-14
-2.49795e-09
-2.77794e-31
-1.0935e-25
-3.40538e-20
-8.26801e-15
-8.60726e-10
-2.80195e-31
-1.10308e-25
-3.43557e-20
-8.34288e-15
-8.68644e-10
-2.80217e-31
-1.10316e-25
-3.43576e-20
-8.34329e-15
-8.68668e-10
-2.80267e-31
-1.10334e-25
-3.43626e-20
-8.34438e-15
-8.68751e-10
-2.80273e-31
-1.10336e-25
-3.43632e-20
-8.34449e-15
-8.6876e-10
-2.8028e-31
-1.10339e-25
-3.43638e-20
-8.34463e-15
-8.68773e-10
-2.80281e-31
-1.10339e-25
-3.43639e-20
-8.34466e-15
-8.68775e-10
-2.80282e-31
-1.10339e-25
-3.4364e-20
-8.34468e-15
-8.68777e-10
-2.80282e-31
-1.10339e-25
-3.4364e-20
-8.34468e-15
-8.68778e-10
-2.80282e-31
-1.10339e-25
-3.4364e-20
-8.34468e-15
-8.68778e-10
-2.80282e-31
-1.10339e-25
-3.4364e-20
-8.34468e-15
-8.68778e-10
-2.80282e-31
-1.10339e-25
-3.4364e-20
-8.34468e-15
-8.68778e-10
-2.80282e-31
-1.10339e-25
-3.4364e-20
-8.34468e-15
-8.68777e-10
-2.80281e-31
-1.10339e-25
-3.43639e-20
-8.34466e-15
-8.68775e-10
-2.8028e-31
-1.10339e-25
-3.43638e-20
-8.34463e-15
-8.68773e-10
-2.80273e-31
-1.10336e-25
-3.43632e-20
-8.34449e-15
-8.6876e-10
-2.80267e-31
-1.10334e-25
-3.43626e-20
-8.34438e-15
-8.68751e-10
-2.80217e-31
-1.10316e-25
-3.43576e-20
-8.34329e-15
-8.68668e-10
-2.80195e-31
-1.10308e-25
-3.43557e-20
-8.34288e-15
-8.68644e-10
-2.77794e-31
-1.0935e-25
-3.40538e-20
-8.26801e-15
-8.60726e-10
-8.54748e-32
-3.40257e-26
-1.07299e-20
-2.68134e-15
-2.74889e-10
-8.63431e-32
-3.43754e-26
-1.0841e-20
-2.7096e-15
-2.77814e-10
-8.63507e-32
-3.43781e-26
-1.08417e-20
-2.70975e-15
-2.77823e-10
-8.63684e-32
-3.43846e-26
-1.08435e-20
-2.71015e-15
-2.77852e-10
-8.63705e-32
-3.43854e-26
-1.08437e-20
-2.71019e-15
-2.77856e-10
-8.63729e-32
-3.43862e-26
-1.08439e-20
-2.71024e-15
-2.77861e-10
-8.63733e-32
-3.43864e-26
-1.0844e-20
-2.71025e-15
-2.77862e-10
-8.63736e-32
-3.43865e-26
-1.0844e-20
-2.71026e-15
-2.77862e-10
-8.63737e-32
-3.43865e-26
-1.0844e-20
-2.71026e-15
-2.77862e-10
-8.63737e-32
-3.43865e-26
-1.0844e-20
-2.71026e-15
-2.77862e-10
-8.63737e-32
-3.43865e-26
-1.0844e-20
-2.71026e-15
-2.77862e-10
-8.63737e-32
-3.43865e-26
-1.0844e-20
-2.71026e-15
-2.77862e-10
-8.63736e-32
-3.43865e-26
-1.0844e-20
-2.71026e-15
-2.77862e-10
-8.63733e-32
-3.43864e-26
-1.0844e-20
-2.71025e-15
-2.77862e-10
-8.63729e-32
-3.43862e-26
-1.08439e-20
-2.71024e-15
-2.77861e-10
-8.63705e-32
-3.43854e-26
-1.08437e-20
-2.71019e-15
-2.77856e-10
-8.63684e-32
-3.43846e-26
-1.08435e-20
-2.71015e-15
-2.77852e-10
-8.63507e-32
-3.43781e-26
-1.08417e-20
-2.70975e-15
-2.77823e-10
-8.63431e-32
-3.43754e-26
-1.0841e-20
-2.70959e-15
-2.77814e-10
-8.54748e-32
-3.40257e-26
-1.07299e-20
-2.68134e-15
-2.74889e-10
-2.40687e-32
-9.71569e-27
-3.11677e-21
-8.0652e-16
-8.19277e-11
-2.435e-32
-9.83035e-27
-3.15376e-21
-8.16231e-16
-8.2919e-11
-2.43524e-32
-9.83122e-27
-3.15399e-21
-8.16283e-16
-8.29219e-11
-2.43579e-32
-9.83326e-27
-3.15455e-21
-8.16414e-16
-8.29313e-11
-2.43585e-32
-9.8335e-27
-3.15462e-21
-8.16429e-16
-8.29326e-11
-2.43593e-32
-9.83378e-27
-3.1547e-21
-8.16447e-16
-8.29341e-11
-2.43594e-32
-9.83383e-27
-3.15471e-21
-8.16451e-16
-8.29345e-11
-2.43595e-32
-9.83387e-27
-3.15472e-21
-8.16453e-16
-8.29347e-11
-2.43596e-32
-9.83388e-27
-3.15473e-21
-8.16454e-16
-8.29348e-11
-2.43596e-32
-9.83388e-27
-3.15473e-21
-8.16454e-16
-8.29348e-11
-2.43596e-32
-9.83388e-27
-3.15473e-21
-8.16454e-16
-8.29348e-11
-2.43596e-32
-9.83388e-27
-3.15473e-21
-8.16454e-16
-8.29348e-11
-2.43595e-32
-9.83387e-27
-3.15472e-21
-8.16453e-16
-8.29347e-11
-2.43594e-32
-9.83383e-27
-3.15471e-21
-8.16451e-16
-8.29345e-11
-2.43593e-32
-9.83378e-27
-3.1547e-21
-8.16447e-16
-8.29341e-11
-2.43585e-32
-9.8335e-27
-3.15462e-21
-8.16429e-16
-8.29326e-11
-2.43579e-32
-9.83326e-27
-3.15455e-21
-8.16414e-16
-8.29313e-11
-2.43524e-32
-9.83122e-27
-3.15398e-21
-8.16283e-16
-8.29219e-11
-2.43499e-32
-9.83035e-27
-3.15376e-21
-8.16231e-16
-8.2919e-11
-2.40687e-32
-9.71569e-27
-3.11677e-21
-8.0652e-16
-8.19277e-11
-4.54743e-28
-1.94509e-28
4.79941e-29
5.0199e-29
5.09308e-29
5.09411e-29
5.09438e-29
5.0944e-29
5.09448e-29
5.09449e-29
5.09449e-29
5.09449e-29
5.09454e-29
5.09473e-29
5.09716e-29
5.10319e-29
5.18806e-29
5.30196e-29
7.79693e-29
9.07066e-29
-4.54833e-28
-1.94616e-28
4.7992e-29
5.01983e-29
5.09307e-29
5.0941e-29
5.09437e-29
5.09437e-29
5.09438e-29
5.09438e-29
5.09438e-29
5.09438e-29
5.09438e-29
5.09454e-29
5.09697e-29
5.10302e-29
5.18802e-29
5.30205e-29
7.80083e-29
9.07545e-29
-4.54832e-28
-1.94616e-28
4.7992e-29
5.01984e-29
5.09308e-29
5.0941e-29
5.09437e-29
5.09438e-29
5.09438e-29
5.09438e-29
5.09438e-29
5.09438e-29
5.0944e-29
5.09459e-29
5.09702e-29
5.10306e-29
5.18807e-29
5.3021e-29
7.80092e-29
9.07555e-29
-4.54831e-28
-1.94616e-28
4.7992e-29
5.01984e-29
5.09308e-29
5.0941e-29
5.09437e-29
5.09438e-29
5.09438e-29
5.09438e-29
5.09438e-29
5.09438e-29
5.09442e-29
5.09462e-29
5.09705e-29
5.10309e-29
5.1881e-29
5.30214e-29
7.80098e-29
9.0756e-29
-4.54831e-28
-1.94616e-28
4.7992e-29
5.01984e-29
5.09308e-29
5.0941e-29
5.09437e-29
5.09438e-29
5.09438e-29
5.09438e-29
5.09438e-29
5.09438e-29
5.09442e-29
5.09462e-29
5.09705e-29
5.10309e-29
5.1881e-29
5.30214e-29
7.80098e-29
9.0756e-29
-4.54831e-28
-1.94615e-28
4.7992e-29
5.01984e-29
5.09308e-29
5.0941e-29
5.09437e-29
5.09438e-29
5.09438e-29
5.09438e-29
5.09438e-29
5.09438e-29
5.09442e-29
5.09462e-29
5.09705e-29
5.1031e-29
5.18811e-29
5.30214e-29
7.80098e-29
9.0756e-29
-4.54831e-28
-1.94615e-28
4.7992e-29
5.01984e-29
5.09308e-29
5.0941e-29
5.09437e-29
5.09438e-29
5.09438e-29
5.09438e-29
5.09438e-29
5.09438e-29
5.09442e-29
5.09462e-29
5.09705e-29
5.1031e-29
5.18811e-29
5.30214e-29
7.80098e-29
9.0756e-29
-4.54831e-28
-1.94615e-28
4.7992e-29
5.01984e-29
5.09308e-29
5.0941e-29
5.09437e-29
5.09438e-29
5.09438e-29
5.09438e-29
5.09438e-29
5.09438e-29
5.09442e-29
5.09462e-29
5.09705e-29
5.1031e-29
5.18811e-29
5.30214e-29
7.80098e-29
9.0756e-29
-4.54831e-28
-1.94615e-28
4.7992e-29
5.01984e-29
5.09308e-29
5.0941e-29
5.09437e-29
5.09438e-29
5.09438e-29
5.09438e-29
5.09438e-29
5.09438e-29
5.09442e-29
5.09462e-29
5.09705e-29
5.1031e-29
5.18811e-29
5.30214e-29
7.80098e-29
9.0756e-29
-4.54831e-28
-1.94615e-28
4.7992e-29
5.01984e-29
5.09308e-29
5.0941e-29
5.09437e-29
5.09438e-29
5.09438e-29
5.09438e-29
5.09438e-29
5.09438e-29
5.09442e-29
5.09462e-29
5.09705e-29
5.1031e-29
5.18811e-29
5.30214e-29
7.80098e-29
9.0756e-29
-4.54831e-28
-1.94615e-28
4.7992e-29
5.01984e-29
5.09308e-29
5.0941e-29
5.09437e-29
5.09438e-29
5.09438e-29
5.09438e-29
5.09438e-29
5.09438e-29
5.09442e-29
5.09462e-29
5.09705e-29
5.1031e-29
5.18811e-29
5.30214e-29
7.80098e-29
9.0756e-29
-4.54831e-28
-1.94615e-28
4.7992e-29
5.01984e-29
5.09308e-29
5.0941e-29
5.09437e-29
5.09438e-29
5.09438e-29
5.09438e-29
5.09438e-29
5.09438e-29
5.09442e-29
5.09462e-29
5.09705e-29
5.1031e-29
5.18811e-29
5.30214e-29
7.80098e-29
9.0756e-29
-4.54831e-28
-1.94615e-28
4.7992e-29
5.01984e-29
5.09308e-29
5.0941e-29
5.09437e-29
5.09438e-29
5.09438e-29
5.09438e-29
5.09438e-29
5.09438e-29
5.09442e-29
5.09462e-29
5.09705e-29
5.1031e-29
5.18811e-29
5.30214e-29
7.80098e-29
9.0756e-29
-4.54831e-28
-1.94615e-28
4.7992e-29
5.01984e-29
5.09308e-29
5.0941e-29
5.09437e-29
5.09438e-29
5.09438e-29
5.09438e-29
5.09438e-29
5.09438e-29
5.09442e-29
5.09462e-29
5.09705e-29
5.1031e-29
5.18811e-29
5.30214e-29
7.80098e-29
9.0756e-29
-4.54831e-28
-1.94615e-28
4.7992e-29
5.01984e-29
5.09308e-29
5.0941e-29
5.09437e-29
5.09438e-29
5.09438e-29
5.09438e-29
5.09438e-29
5.09438e-29
5.09442e-29
5.09462e-29
5.09705e-29
5.1031e-29
5.18811e-29
5.30214e-29
7.80098e-29
9.0756e-29