/*--------------------------------*- C++ -*----------------------------------*\
  =========                 |
  \\      /  F ield         | OpenFOAM: The Open Source CFD Toolbox
   \\    /   O peration     | Website:  https://openfoam.org
    \\  /    A nd           | Version:  8
     \\/     M anipulation  |
\*---------------------------------------------------------------------------*/
FoamFile
{
    version     2.0;
    format      ascii;
    class       volScalarField;
    location    "0.1";
    object      p;
}
// * * * * * * * * * * * * * * * * * * * * * * * * * * * * * * * * * * * * * //

dimensions      [0 2 -2 0 0 0 0];

internalField   nonuniform List<scalar> 
180000
(
0.0019005
0.00188731
0.00188259
0.00179658
0.00180127
0.00190003
0.0018868
0.00188208
0.00179583
0.00180061
0.00190002
0.00188679
0.00188207
0.00179582
0.00180061
0.0019
0.00188677
0.00188206
0.0017958
0.0018006
0.0019
0.00188677
0.00188206
0.0017958
0.0018006
0.0019
0.00188677
0.00188205
0.0017958
0.0018006
0.0019
0.00188677
0.00188205
0.0017958
0.0018006
0.0019
0.00188677
0.00188205
0.0017958
0.0018006
0.0019
0.00188677
0.00188205
0.0017958
0.0018006
0.0019
0.00188677
0.00188205
0.0017958
0.0018006
0.0019
0.00188677
0.00188205
0.0017958
0.0018006
0.0019
0.00188677
0.00188205
0.0017958
0.0018006
0.0019
0.00188677
0.00188205
0.0017958
0.0018006
0.0019
0.00188677
0.00188205
0.0017958
0.0018006
0.0019
0.00188677
0.00188205
0.0017958
0.0018006
0.0019
0.00188677
0.00188206
0.0017958
0.0018006
0.0019
0.00188677
0.00188206
0.0017958
0.0018006
0.00190002
0.00188679
0.00188207
0.00179582
0.00180061
0.00190003
0.0018868
0.00188208
0.00179583
0.00180061
0.0019005
0.00188731
0.00188259
0.00179658
0.00180127
0.000539214
0.000549521
0.000555215
0.000609328
0.000613959
0.000539514
0.000549681
0.000555366
0.000609507
0.000614113
0.000539526
0.000549689
0.000555371
0.000609511
0.000614116
0.00053955
0.000549704
0.000555385
0.00060952
0.000614123
0.000539551
0.000549705
0.000555385
0.000609521
0.000614124
0.000539553
0.000549706
0.000555386
0.000609521
0.000614124
0.000539553
0.000549707
0.000555386
0.000609521
0.000614124
0.000539554
0.000549707
0.000555386
0.000609522
0.000614124
0.000539554
0.000549707
0.000555386
0.000609522
0.000614124
0.000539554
0.000549707
0.000555386
0.000609522
0.000614124
0.000539554
0.000549707
0.000555386
0.000609522
0.000614124
0.000539554
0.000549707
0.000555386
0.000609522
0.000614124
0.000539554
0.000549707
0.000555386
0.000609522
0.000614124
0.000539553
0.000549707
0.000555386
0.000609521
0.000614124
0.000539553
0.000549706
0.000555386
0.000609521
0.000614124
0.000539551
0.000549705
0.000555385
0.000609521
0.000614124
0.00053955
0.000549704
0.000555385
0.00060952
0.000614123
0.000539526
0.000549689
0.000555371
0.000609511
0.000614116
0.000539514
0.000549681
0.000555366
0.000609507
0.000614113
0.000539214
0.000549521
0.000555215
0.000609328
0.000613959
0.000826428
0.000812561
0.000809529
0.000741446
0.000753331
0.000826192
0.000812019
0.000809002
0.000740913
0.000752879
0.000826192
0.000812014
0.000808999
0.000740911
0.000752878
0.000826185
0.000811993
0.000808981
0.000740898
0.00075287
0.000826185
0.000811992
0.000808981
0.000740898
0.00075287
0.000826184
0.000811991
0.00080898
0.000740897
0.00075287
0.000826184
0.000811991
0.00080898
0.000740897
0.00075287
0.000826184
0.000811991
0.00080898
0.000740897
0.00075287
0.000826184
0.000811991
0.00080898
0.000740897
0.00075287
0.000826185
0.000811991
0.00080898
0.000740897
0.00075287
0.000826185
0.000811991
0.00080898
0.000740897
0.00075287
0.000826184
0.000811991
0.00080898
0.000740897
0.00075287
0.000826184
0.000811991
0.00080898
0.000740897
0.00075287
0.000826184
0.000811991
0.00080898
0.000740897
0.00075287
0.000826184
0.000811991
0.00080898
0.000740897
0.00075287
0.000826185
0.000811992
0.000808981
0.000740898
0.00075287
0.000826185
0.000811993
0.000808981
0.000740898
0.00075287
0.000826192
0.000812014
0.000808999
0.000740911
0.000752878
0.000826192
0.000812019
0.000809002
0.000740913
0.000752879
0.000826428
0.000812561
0.000809529
0.000741446
0.000753331
0.000803553
0.000800982
0.000802634
0.000777988
0.000789767
0.000803724
0.000800796
0.000802444
0.000777659
0.000789513
0.000803736
0.000800798
0.000802445
0.000777658
0.000789514
0.000803749
0.000800794
0.000802441
0.000777651
0.00078951
0.00080375
0.000800794
0.000802441
0.000777651
0.00078951
0.000803751
0.000800794
0.000802441
0.000777651
0.00078951
0.000803751
0.000800794
0.000802441
0.000777651
0.00078951
0.000803751
0.000800794
0.000802442
0.000777651
0.00078951
0.000803751
0.000800794
0.000802442
0.000777651
0.00078951
0.000803751
0.000800794
0.000802442
0.000777651
0.00078951
0.000803751
0.000800794
0.000802442
0.000777651
0.00078951
0.000803751
0.000800794
0.000802442
0.000777651
0.00078951
0.000803751
0.000800794
0.000802442
0.000777651
0.00078951
0.000803751
0.000800794
0.000802441
0.000777651
0.00078951
0.000803751
0.000800794
0.000802441
0.000777651
0.00078951
0.00080375
0.000800794
0.000802441
0.000777651
0.00078951
0.000803749
0.000800794
0.000802441
0.000777651
0.00078951
0.000803736
0.000800798
0.000802445
0.000777658
0.000789514
0.000803724
0.000800796
0.000802444
0.000777659
0.000789513
0.000803553
0.000800982
0.000802634
0.000777988
0.000789767
0.000786452
0.000783495
0.000785252
0.000762233
0.000775683
0.000786612
0.000783309
0.000785054
0.000761979
0.000775499
0.000786626
0.000783312
0.000785055
0.000761979
0.0007755
0.000786638
0.000783308
0.000785051
0.000761974
0.000775498
0.00078664
0.000783308
0.000785051
0.000761974
0.000775498
0.000786641
0.000783308
0.000785051
0.000761974
0.000775498
0.000786641
0.000783308
0.000785051
0.000761974
0.000775498
0.000786641
0.000783308
0.000785051
0.000761974
0.000775498
0.000786641
0.000783308
0.000785052
0.000761974
0.000775499
0.000786641
0.000783309
0.000785052
0.000761974
0.000775499
0.000786641
0.000783309
0.000785052
0.000761974
0.000775499
0.000786641
0.000783308
0.000785052
0.000761974
0.000775499
0.000786641
0.000783308
0.000785051
0.000761974
0.000775498
0.000786641
0.000783308
0.000785051
0.000761974
0.000775498
0.000786641
0.000783308
0.000785051
0.000761974
0.000775498
0.00078664
0.000783308
0.000785051
0.000761974
0.000775498
0.000786638
0.000783308
0.000785051
0.000761974
0.000775498
0.000786626
0.000783312
0.000785055
0.000761979
0.0007755
0.000786612
0.000783309
0.000785054
0.000761979
0.000775499
0.000786452
0.000783495
0.000785252
0.000762233
0.000775683
0.000783545
0.000778891
0.00078032
0.000751708
0.000767596
0.000783657
0.000778674
0.000780092
0.000751448
0.000767416
0.000783672
0.000778678
0.000780093
0.000751449
0.000767418
0.000783681
0.000778672
0.000780087
0.000751442
0.000767415
0.000783683
0.000778672
0.000780088
0.000751443
0.000767416
0.000783684
0.000778672
0.000780088
0.000751443
0.000767416
0.000783684
0.000778672
0.000780088
0.000751443
0.000767416
0.000783684
0.000778672
0.000780088
0.000751443
0.000767416
0.000783684
0.000778672
0.000780088
0.000751443
0.000767416
0.000783684
0.000778672
0.000780088
0.000751443
0.000767416
0.000783684
0.000778672
0.000780088
0.000751443
0.000767416
0.000783684
0.000778672
0.000780088
0.000751443
0.000767416
0.000783684
0.000778672
0.000780088
0.000751443
0.000767416
0.000783684
0.000778672
0.000780088
0.000751443
0.000767416
0.000783684
0.000778672
0.000780088
0.000751443
0.000767416
0.000783683
0.000778672
0.000780088
0.000751443
0.000767416
0.000783681
0.000778672
0.000780087
0.000751442
0.000767415
0.000783672
0.000778678
0.000780093
0.000751449
0.000767418
0.000783657
0.000778674
0.000780092
0.000751448
0.000767416
0.000783545
0.000778891
0.00078032
0.000751708
0.000767596
0.000781681
0.000776579
0.00077824
0.000747594
0.000765707
0.000781777
0.000776371
0.000778017
0.000747333
0.000765537
0.000781795
0.000776375
0.000778019
0.000747334
0.000765539
0.000781802
0.000776369
0.000778013
0.000747327
0.000765536
0.000781804
0.000776369
0.000778013
0.000747327
0.000765537
0.000781805
0.000776369
0.000778013
0.000747327
0.000765537
0.000781805
0.00077637
0.000778013
0.000747327
0.000765538
0.000781805
0.00077637
0.000778013
0.000747327
0.000765538
0.000781805
0.00077637
0.000778013
0.000747328
0.000765538
0.000781805
0.00077637
0.000778014
0.000747328
0.000765538
0.000781805
0.00077637
0.000778014
0.000747328
0.000765538
0.000781805
0.00077637
0.000778013
0.000747328
0.000765538
0.000781805
0.00077637
0.000778013
0.000747327
0.000765538
0.000781805
0.00077637
0.000778013
0.000747327
0.000765538
0.000781805
0.000776369
0.000778013
0.000747327
0.000765537
0.000781804
0.000776369
0.000778013
0.000747327
0.000765537
0.000781802
0.000776369
0.000778013
0.000747327
0.000765536
0.000781795
0.000776375
0.000778019
0.000747334
0.000765539
0.000781777
0.000776371
0.000778017
0.000747333
0.000765537
0.000781681
0.000776579
0.00077824
0.000747594
0.000765707
0.000778361
0.000773088
0.000775124
0.000744167
0.000764364
0.000778447
0.000772894
0.000774914
0.000743917
0.000764215
0.000778467
0.0007729
0.000774917
0.000743918
0.000764217
0.000778473
0.000772893
0.000774911
0.000743911
0.000764215
0.000778475
0.000772894
0.000774912
0.000743911
0.000764215
0.000778476
0.000772894
0.000774911
0.000743911
0.000764215
0.000778477
0.000772894
0.000774912
0.000743912
0.000764216
0.000778477
0.000772894
0.000774912
0.000743912
0.000764216
0.000778477
0.000772895
0.000774912
0.000743912
0.000764216
0.000778477
0.000772895
0.000774912
0.000743912
0.000764216
0.000778477
0.000772895
0.000774912
0.000743912
0.000764216
0.000778477
0.000772895
0.000774912
0.000743912
0.000764216
0.000778477
0.000772894
0.000774912
0.000743912
0.000764216
0.000778477
0.000772894
0.000774912
0.000743912
0.000764216
0.000778476
0.000772894
0.000774911
0.000743911
0.000764215
0.000778475
0.000772894
0.000774912
0.000743911
0.000764215
0.000778473
0.000772893
0.000774911
0.000743911
0.000764215
0.000778467
0.0007729
0.000774917
0.000743918
0.000764217
0.000778447
0.000772894
0.000774914
0.000743917
0.000764215
0.000778361
0.000773088
0.000775124
0.000744167
0.000764364
0.000774628
0.000769092
0.000771446
0.000740119
0.000762399
0.000774702
0.000768908
0.000771246
0.00073988
0.00076227
0.000774724
0.000768916
0.000771249
0.000739882
0.000762273
0.000774729
0.000768909
0.000771243
0.000739875
0.00076227
0.000774731
0.00076891
0.000771244
0.000739876
0.000762271
0.000774732
0.00076891
0.000771244
0.000739875
0.000762271
0.000774733
0.00076891
0.000771244
0.000739876
0.000762272
0.000774733
0.00076891
0.000771244
0.000739876
0.000762272
0.000774733
0.000768911
0.000771245
0.000739876
0.000762272
0.000774733
0.000768911
0.000771245
0.000739876
0.000762272
0.000774733
0.000768911
0.000771245
0.000739876
0.000762272
0.000774733
0.000768911
0.000771245
0.000739876
0.000762272
0.000774733
0.00076891
0.000771244
0.000739876
0.000762272
0.000774733
0.00076891
0.000771244
0.000739876
0.000762272
0.000774732
0.00076891
0.000771244
0.000739875
0.000762271
0.000774731
0.00076891
0.000771244
0.000739876
0.000762271
0.000774729
0.000768909
0.000771243
0.000739875
0.00076227
0.000774724
0.000768916
0.000771249
0.000739882
0.000762273
0.000774702
0.000768908
0.000771246
0.00073988
0.00076227
0.000774628
0.000769092
0.000771446
0.000740119
0.000762399
0.000771029
0.000765195
0.000767823
0.000735946
0.000760496
0.000771092
0.000765019
0.000767632
0.000735717
0.000760384
0.000771114
0.000765027
0.000767636
0.000735719
0.000760388
0.000771119
0.000765021
0.000767629
0.000735712
0.000760385
0.000771121
0.000765022
0.000767631
0.000735713
0.000760386
0.000771122
0.000765022
0.000767631
0.000735713
0.000760387
0.000771123
0.000765022
0.000767631
0.000735713
0.000760387
0.000771123
0.000765023
0.000767631
0.000735713
0.000760387
0.000771123
0.000765023
0.000767631
0.000735713
0.000760387
0.000771123
0.000765023
0.000767631
0.000735713
0.000760387
0.000771123
0.000765023
0.000767631
0.000735713
0.000760387
0.000771123
0.000765023
0.000767631
0.000735713
0.000760387
0.000771123
0.000765023
0.000767631
0.000735713
0.000760387
0.000771123
0.000765022
0.000767631
0.000735713
0.000760387
0.000771122
0.000765022
0.000767631
0.000735713
0.000760387
0.000771121
0.000765022
0.000767631
0.000735713
0.000760386
0.000771119
0.000765021
0.000767629
0.000735712
0.000760385
0.000771114
0.000765027
0.000767636
0.000735719
0.000760388
0.000771092
0.000765019
0.000767632
0.000735717
0.000760384
0.000771029
0.000765195
0.000767823
0.000735946
0.000760496
0.000767518
0.000761403
0.000764297
0.000731907
0.000759215
0.000767571
0.000761235
0.000764113
0.000731687
0.000759122
0.000767595
0.000761244
0.000764118
0.000731689
0.000759125
0.000767599
0.000761237
0.000764112
0.000731682
0.000759123
0.000767602
0.000761239
0.000764113
0.000731683
0.000759125
0.000767602
0.000761239
0.000764113
0.000731683
0.000759125
0.000767603
0.000761239
0.000764113
0.000731683
0.000759125
0.000767603
0.000761239
0.000764114
0.000731683
0.000759125
0.000767603
0.00076124
0.000764114
0.000731683
0.000759125
0.000767603
0.00076124
0.000764114
0.000731683
0.000759125
0.000767603
0.00076124
0.000764114
0.000731683
0.000759125
0.000767603
0.00076124
0.000764114
0.000731683
0.000759125
0.000767603
0.000761239
0.000764114
0.000731683
0.000759125
0.000767603
0.000761239
0.000764113
0.000731683
0.000759125
0.000767602
0.000761239
0.000764113
0.000731683
0.000759125
0.000767602
0.000761239
0.000764113
0.000731683
0.000759125
0.000767599
0.000761237
0.000764112
0.000731682
0.000759123
0.000767595
0.000761244
0.000764118
0.000731689
0.000759125
0.000767571
0.000761235
0.000764113
0.000731687
0.000759122
0.000767518
0.000761403
0.000764297
0.000731907
0.000759215
0.00076401
0.000757629
0.000760783
0.00072791
0.000755415
0.000764054
0.000757468
0.000760608
0.000727698
0.000755332
0.000764079
0.000757478
0.000760613
0.0007277
0.000755336
0.000764082
0.000757472
0.000760607
0.000727693
0.000755334
0.000764085
0.000757474
0.000760608
0.000727694
0.000755335
0.000764085
0.000757473
0.000760608
0.000727694
0.000755335
0.000764086
0.000757474
0.000760609
0.000727695
0.000755336
0.000764086
0.000757474
0.000760609
0.000727695
0.000755336
0.000764086
0.000757474
0.000760609
0.000727695
0.000755336
0.000764086
0.000757474
0.000760609
0.000727695
0.000755336
0.000764086
0.000757474
0.000760609
0.000727695
0.000755336
0.000764086
0.000757474
0.000760609
0.000727695
0.000755336
0.000764086
0.000757474
0.000760609
0.000727695
0.000755336
0.000764086
0.000757474
0.000760609
0.000727695
0.000755336
0.000764085
0.000757473
0.000760608
0.000727694
0.000755335
0.000764085
0.000757474
0.000760608
0.000727694
0.000755335
0.000764082
0.000757472
0.000760607
0.000727693
0.000755334
0.000764079
0.000757478
0.000760613
0.0007277
0.000755336
0.000764054
0.000757468
0.000760608
0.000727698
0.000755332
0.00076401
0.000757629
0.000760783
0.00072791
0.000755415
0.000760494
0.000753857
0.000757262
0.000723843
0.000750922
0.00076053
0.000753703
0.000757094
0.000723638
0.000750845
0.000760556
0.000753714
0.000757099
0.000723641
0.000750849
0.000760558
0.000753708
0.000757093
0.000723634
0.000750847
0.000760561
0.000753709
0.000757095
0.000723635
0.000750849
0.000760562
0.000753709
0.000757095
0.000723635
0.000750849
0.000760562
0.00075371
0.000757095
0.000723636
0.00075085
0.000760563
0.00075371
0.000757096
0.000723636
0.00075085
0.000760563
0.00075371
0.000757096
0.000723636
0.00075085
0.000760563
0.00075371
0.000757096
0.000723636
0.00075085
0.000760563
0.00075371
0.000757096
0.000723636
0.00075085
0.000760563
0.00075371
0.000757096
0.000723636
0.00075085
0.000760563
0.00075371
0.000757096
0.000723636
0.00075085
0.000760562
0.00075371
0.000757095
0.000723636
0.00075085
0.000760562
0.000753709
0.000757095
0.000723635
0.000750849
0.000760561
0.000753709
0.000757095
0.000723635
0.000750849
0.000760558
0.000753708
0.000757093
0.000723634
0.000750847
0.000760556
0.000753714
0.000757099
0.000723641
0.000750849
0.00076053
0.000753703
0.000757094
0.000723638
0.000750845
0.000760494
0.000753857
0.000757262
0.000723843
0.000750922
0.000756982
0.000750097
0.00075374
0.000719705
0.000746582
0.00075701
0.000749949
0.00075358
0.000719508
0.000746513
0.000757037
0.000749961
0.000753586
0.000719512
0.000746517
0.000757039
0.000749954
0.00075358
0.000719504
0.000746516
0.000757042
0.000749956
0.000753582
0.000719506
0.000746517
0.000757042
0.000749956
0.000753582
0.000719506
0.000746518
0.000757043
0.000749957
0.000753583
0.000719506
0.000746518
0.000757043
0.000749957
0.000753583
0.000719507
0.000746518
0.000757043
0.000749957
0.000753583
0.000719507
0.000746518
0.000757044
0.000749957
0.000753583
0.000719507
0.000746518
0.000757044
0.000749957
0.000753583
0.000719507
0.000746518
0.000757043
0.000749957
0.000753583
0.000719507
0.000746518
0.000757043
0.000749957
0.000753583
0.000719507
0.000746518
0.000757043
0.000749957
0.000753583
0.000719506
0.000746518
0.000757042
0.000749956
0.000753582
0.000719506
0.000746518
0.000757042
0.000749956
0.000753582
0.000719506
0.000746517
0.000757039
0.000749954
0.00075358
0.000719504
0.000746516
0.000757037
0.000749961
0.000753586
0.000719512
0.000746517
0.00075701
0.000749949
0.00075358
0.000719508
0.000746513
0.000756982
0.000750097
0.00075374
0.000719705
0.000746582
0.000753477
0.000746351
0.000750225
0.00071552
0.000742377
0.000753498
0.000746209
0.000750072
0.000715331
0.000742315
0.000753526
0.000746222
0.000750079
0.000715334
0.000742319
0.000753527
0.000746215
0.000750073
0.000715327
0.000742318
0.00075353
0.000746217
0.000750075
0.000715329
0.00074232
0.000753531
0.000746218
0.000750075
0.000715329
0.00074232
0.000753532
0.000746218
0.000750076
0.000715329
0.000742321
0.000753532
0.000746218
0.000750076
0.000715329
0.000742321
0.000753532
0.000746219
0.000750076
0.00071533
0.000742321
0.000753532
0.000746219
0.000750076
0.00071533
0.000742321
0.000753532
0.000746219
0.000750076
0.00071533
0.000742321
0.000753532
0.000746219
0.000750076
0.00071533
0.000742321
0.000753532
0.000746218
0.000750076
0.000715329
0.000742321
0.000753532
0.000746218
0.000750076
0.000715329
0.000742321
0.000753531
0.000746218
0.000750075
0.000715329
0.00074232
0.00075353
0.000746217
0.000750075
0.000715329
0.00074232
0.000753527
0.000746215
0.000750073
0.000715327
0.000742318
0.000753526
0.000746222
0.000750079
0.000715334
0.000742319
0.000753498
0.000746209
0.000750072
0.000715331
0.000742315
0.000753477
0.000746351
0.000750225
0.00071552
0.000742377
0.000749978
0.000742621
0.000746716
0.000711296
0.000738191
0.000749993
0.000742484
0.00074657
0.000711114
0.000738136
0.000750022
0.000742497
0.000746577
0.000711118
0.000738142
0.000750023
0.000742491
0.000746572
0.000711111
0.000738141
0.000750026
0.000742493
0.000746574
0.000711112
0.000738142
0.000750026
0.000742493
0.000746574
0.000711112
0.000738143
0.000750027
0.000742494
0.000746574
0.000711113
0.000738143
0.000750027
0.000742494
0.000746575
0.000711113
0.000738144
0.000750028
0.000742494
0.000746575
0.000711113
0.000738144
0.000750028
0.000742494
0.000746575
0.000711113
0.000738144
0.000750028
0.000742494
0.000746575
0.000711113
0.000738144
0.000750028
0.000742494
0.000746575
0.000711113
0.000738144
0.000750027
0.000742494
0.000746575
0.000711113
0.000738144
0.000750027
0.000742494
0.000746574
0.000711113
0.000738143
0.000750026
0.000742493
0.000746574
0.000711112
0.000738143
0.000750026
0.000742493
0.000746574
0.000711112
0.000738142
0.000750023
0.000742491
0.000746572
0.000711111
0.000738141
0.000750022
0.000742497
0.000746577
0.000711118
0.000738142
0.000749994
0.000742484
0.00074657
0.000711114
0.000738136
0.000749978
0.000742621
0.000746716
0.000711296
0.000738191
0.000746486
0.000738903
0.000743212
0.000707032
0.000734001
0.000746495
0.000738772
0.000743074
0.000706857
0.000733954
0.000746524
0.000738786
0.000743081
0.000706861
0.00073396
0.000746525
0.000738779
0.000743076
0.000706854
0.000733959
0.000746528
0.000738782
0.000743078
0.000706856
0.000733961
0.000746528
0.000738782
0.000743078
0.000706856
0.000733962
0.000746529
0.000738783
0.000743079
0.000706857
0.000733962
0.000746529
0.000738783
0.000743079
0.000706857
0.000733962
0.00074653
0.000738783
0.000743079
0.000706857
0.000733963
0.00074653
0.000738783
0.000743079
0.000706857
0.000733963
0.00074653
0.000738783
0.000743079
0.000706857
0.000733963
0.00074653
0.000738783
0.000743079
0.000706857
0.000733963
0.000746529
0.000738783
0.000743079
0.000706857
0.000733962
0.000746529
0.000738783
0.000743079
0.000706857
0.000733962
0.000746528
0.000738782
0.000743078
0.000706856
0.000733962
0.000746528
0.000738782
0.000743078
0.000706856
0.000733961
0.000746525
0.000738779
0.000743076
0.000706854
0.000733959
0.000746524
0.000738786
0.000743081
0.000706861
0.00073396
0.000746495
0.000738772
0.000743074
0.000706857
0.000733954
0.000746486
0.000738903
0.000743212
0.000707032
0.000734001
0.000743
0.0007352
0.000739714
0.000702727
0.000729825
0.000743004
0.000735073
0.000739583
0.000702559
0.000729786
0.000743033
0.000735088
0.000739591
0.000702564
0.000729792
0.000743033
0.000735082
0.000739585
0.000702557
0.000729792
0.000743037
0.000735084
0.000739588
0.000702559
0.000729794
0.000743037
0.000735084
0.000739588
0.000702559
0.000729794
0.000743038
0.000735085
0.000739589
0.00070256
0.000729795
0.000743038
0.000735085
0.000739589
0.00070256
0.000729795
0.000743039
0.000735085
0.000739589
0.00070256
0.000729795
0.000743039
0.000735086
0.000739589
0.00070256
0.000729795
0.000743039
0.000735086
0.000739589
0.00070256
0.000729795
0.000743039
0.000735085
0.000739589
0.00070256
0.000729795
0.000743038
0.000735085
0.000739589
0.00070256
0.000729795
0.000743038
0.000735085
0.000739589
0.00070256
0.000729795
0.000743037
0.000735084
0.000739588
0.000702559
0.000729794
0.000743037
0.000735084
0.000739588
0.000702559
0.000729794
0.000743033
0.000735082
0.000739585
0.000702557
0.000729792
0.000743033
0.000735088
0.000739591
0.000702564
0.000729792
0.000743004
0.000735073
0.000739583
0.000702559
0.000729786
0.000743
0.0007352
0.000739714
0.000702727
0.000729825
0.00073952
0.000731511
0.000736223
0.000698378
0.000725678
0.00073952
0.000731389
0.000736098
0.000698217
0.000725647
0.000739549
0.000731404
0.000736107
0.000698222
0.000725654
0.000739549
0.000731397
0.000736102
0.000698215
0.000725653
0.000739553
0.0007314
0.000736104
0.000698217
0.000725656
0.000739553
0.0007314
0.000736104
0.000698217
0.000725656
0.000739554
0.000731401
0.000736105
0.000698218
0.000725657
0.000739555
0.000731401
0.000736105
0.000698218
0.000725657
0.000739555
0.000731401
0.000736105
0.000698218
0.000725657
0.000739555
0.000731402
0.000736106
0.000698218
0.000725657
0.000739555
0.000731402
0.000736106
0.000698218
0.000725657
0.000739555
0.000731401
0.000736105
0.000698218
0.000725657
0.000739555
0.000731401
0.000736105
0.000698218
0.000725657
0.000739554
0.000731401
0.000736105
0.000698218
0.000725657
0.000739553
0.0007314
0.000736104
0.000698217
0.000725656
0.000739553
0.0007314
0.000736104
0.000698217
0.000725656
0.000739549
0.000731397
0.000736102
0.000698215
0.000725653
0.000739549
0.000731404
0.000736107
0.000698222
0.000725654
0.00073952
0.000731389
0.000736098
0.000698217
0.000725647
0.00073952
0.000731511
0.000736223
0.000698378
0.000725678
0.000736048
0.000727835
0.000732739
0.000693978
0.000721453
0.000736044
0.000727718
0.00073262
0.000693824
0.000721431
0.000736073
0.000727733
0.00073263
0.000693829
0.000721437
0.000736073
0.000727727
0.000732625
0.000693823
0.000721438
0.000736076
0.00072773
0.000732627
0.000693825
0.00072144
0.000736077
0.00072773
0.000732627
0.000693825
0.00072144
0.000736078
0.000727731
0.000732628
0.000693826
0.000721441
0.000736078
0.000727731
0.000732628
0.000693826
0.000721441
0.000736078
0.000727731
0.000732629
0.000693826
0.000721442
0.000736078
0.000727731
0.000732629
0.000693826
0.000721442
0.000736078
0.000727731
0.000732629
0.000693826
0.000721442
0.000736078
0.000727731
0.000732629
0.000693826
0.000721442
0.000736078
0.000727731
0.000732628
0.000693826
0.000721441
0.000736078
0.000727731
0.000732628
0.000693826
0.000721441
0.000736077
0.00072773
0.000732627
0.000693825
0.00072144
0.000736076
0.00072773
0.000732627
0.000693825
0.00072144
0.000736073
0.000727727
0.000732625
0.000693823
0.000721438
0.000736073
0.000727733
0.00073263
0.000693829
0.000721437
0.000736044
0.000727718
0.00073262
0.000693824
0.000721431
0.000736048
0.000727835
0.000732739
0.000693978
0.000721453
6.18279e-06
1.22575e-05
5.92387e-07
2.6468e-07
1.65138e-07
1.62531e-07
1.61646e-07
1.6162e-07
1.61612e-07
1.61612e-07
1.61612e-07
1.61613e-07
1.61611e-07
1.61606e-07
1.61522e-07
1.61384e-07
1.59461e-07
1.57948e-07
1.29868e-07
1.24101e-07
6.15885e-06
1.22798e-05
5.941e-07
2.64956e-07
1.65128e-07
1.62511e-07
1.61622e-07
1.61596e-07
1.61588e-07
1.61588e-07
1.61589e-07
1.61589e-07
1.61588e-07
1.61582e-07
1.61498e-07
1.6136e-07
1.59431e-07
1.57917e-07
1.29791e-07
1.24034e-07
6.15861e-06
1.228e-05
5.94116e-07
2.6496e-07
1.65128e-07
1.6251e-07
1.61622e-07
1.61596e-07
1.61587e-07
1.61588e-07
1.61588e-07
1.61589e-07
1.61587e-07
1.61582e-07
1.61498e-07
1.61359e-07
1.59431e-07
1.57917e-07
1.29791e-07
1.24033e-07
6.15785e-06
1.22803e-05
5.94134e-07
2.64964e-07
1.65127e-07
1.6251e-07
1.61621e-07
1.61595e-07
1.61587e-07
1.61587e-07
1.61588e-07
1.61588e-07
1.61587e-07
1.61581e-07
1.61497e-07
1.61359e-07
1.5943e-07
1.57916e-07
1.29789e-07
1.24032e-07
6.15783e-06
1.22803e-05
5.94134e-07
2.64965e-07
1.65127e-07
1.6251e-07
1.61621e-07
1.61595e-07
1.61587e-07
1.61587e-07
1.61588e-07
1.61588e-07
1.61587e-07
1.61581e-07
1.61497e-07
1.61359e-07
1.5943e-07
1.57916e-07
1.29789e-07
1.24032e-07
6.15779e-06
1.22803e-05
5.94134e-07
2.64965e-07
1.65127e-07
1.6251e-07
1.61621e-07
1.61595e-07
1.61587e-07
1.61587e-07
1.61588e-07
1.61588e-07
1.61587e-07
1.61581e-07
1.61497e-07
1.61359e-07
1.5943e-07
1.57916e-07
1.29789e-07
1.24032e-07
6.15779e-06
1.22803e-05
5.94134e-07
2.64965e-07
1.65127e-07
1.6251e-07
1.61621e-07
1.61595e-07
1.61587e-07
1.61587e-07
1.61588e-07
1.61588e-07
1.61587e-07
1.61581e-07
1.61497e-07
1.61359e-07
1.5943e-07
1.57916e-07
1.29789e-07
1.24032e-07
6.15779e-06
1.22803e-05
5.94134e-07
2.64965e-07
1.65127e-07
1.6251e-07
1.61621e-07
1.61595e-07
1.61587e-07
1.61587e-07
1.61588e-07
1.61588e-07
1.61587e-07
1.61581e-07
1.61497e-07
1.61359e-07
1.5943e-07
1.57916e-07
1.29789e-07
1.24032e-07
6.15779e-06
1.22803e-05
5.94134e-07
2.64965e-07
1.65127e-07
1.6251e-07
1.61621e-07
1.61595e-07
1.61587e-07
1.61587e-07
1.61588e-07
1.61588e-07
1.61587e-07
1.61581e-07
1.61497e-07
1.61359e-07
1.5943e-07
1.57916e-07
1.29789e-07
1.24032e-07
6.15779e-06
1.22803e-05
5.94134e-07
2.64965e-07
1.65127e-07
1.6251e-07
1.61621e-07
1.61595e-07
1.61587e-07
1.61587e-07
1.61588e-07
1.61588e-07
1.61587e-07
1.61581e-07
1.61497e-07
1.61359e-07
1.5943e-07
1.57916e-07
1.29789e-07
1.24032e-07
6.15779e-06
1.22803e-05
5.94134e-07
2.64965e-07
1.65127e-07
1.6251e-07
1.61621e-07
1.61595e-07
1.61587e-07
1.61587e-07
1.61588e-07
1.61588e-07
1.61587e-07
1.61581e-07
1.61497e-07
1.61359e-07
1.5943e-07
1.57916e-07
1.29789e-07
1.24032e-07
6.15779e-06
1.22803e-05
5.94134e-07
2.64965e-07
1.65127e-07
1.6251e-07
1.61621e-07
1.61595e-07
1.61587e-07
1.61587e-07
1.61588e-07
1.61588e-07
1.61587e-07
1.61581e-07
1.61497e-07
1.61359e-07
1.5943e-07
1.57916e-07
1.29789e-07
1.24032e-07
6.15779e-06
1.22803e-05
5.94134e-07
2.64965e-07
1.65127e-07
1.6251e-07
1.61621e-07
1.61595e-07
1.61587e-07
1.61587e-07
1.61588e-07
1.61588e-07
1.61587e-07
1.61581e-07
1.61497e-07
1.61359e-07
1.5943e-07
1.57916e-07
1.29789e-07
1.24032e-07
6.15779e-06
1.22803e-05
5.94134e-07
2.64965e-07
1.65127e-07
1.6251e-07
1.61621e-07
1.61595e-07
1.61587e-07
1.61587e-07
1.61588e-07
1.61588e-07
1.61587e-07
1.61581e-07
1.61497e-07
1.61359e-07
1.5943e-07
1.57916e-07
1.29789e-07
1.24032e-07
6.15779e-06
1.22803e-05
5.94134e-07
2.64965e-07
1.65127e-07
1.6251e-07
1.61621e-07
1.61595e-07
1.61587e-07
1.61587e-07
1.61588e-07
1.61588e-07
1.61587e-07
1.61581e-07
1.61497e-07
1.61359e-07
1.5943e-07
1.57916e-07
1.29789e-07
1.24032e-07
6.15783e-06
1.22803e-05
5.94134e-07
2.64965e-07
1.65127e-07
1.6251e-07
1.61621e-07
1.61595e-07
1.61587e-07
1.61587e-07
1.61588e-07
1.61588e-07
1.61587e-07
1.61581e-07
1.61497e-07
1.61359e-07
1.5943e-07
1.57916e-07
1.29789e-07
1.24032e-07
6.15785e-06
1.22803e-05
5.94134e-07
2.64964e-07
1.65127e-07
1.6251e-07
1.61621e-07
1.61595e-07
1.61587e-07
1.61587e-07
1.61588e-07
1.61588e-07
1.61587e-07
1.61581e-07
1.61497e-07
1.61359e-07
1.5943e-07
1.57916e-07
1.29789e-07
1.24032e-07
6.15861e-06
1.228e-05
5.94116e-07
2.6496e-07
1.65128e-07
1.6251e-07
1.61622e-07
1.61596e-07
1.61587e-07
1.61588e-07
1.61588e-07
1.61589e-07
1.61587e-07
1.61582e-07
1.61498e-07
1.61359e-07
1.59431e-07
1.57917e-07
1.29791e-07
1.24033e-07
6.15885e-06
1.22798e-05
5.941e-07
2.64956e-07
1.65128e-07
1.62511e-07
1.61622e-07
1.61596e-07
1.61588e-07
1.61588e-07
1.61589e-07
1.61589e-07
1.61588e-07
1.61582e-07
1.61498e-07
1.6136e-07
1.59431e-07
1.57917e-07
1.29791e-07
1.24034e-07
6.18279e-06
1.22575e-05
5.92387e-07
2.6468e-07
1.65138e-07
1.62531e-07
1.61646e-07
1.6162e-07
1.61612e-07
1.61612e-07
1.61612e-07
1.61613e-07
1.61611e-07
1.61606e-07
1.61522e-07
1.61384e-07
1.59461e-07
1.57948e-07
1.29868e-07
1.24101e-07
5.77008e-06
1.23512e-05
5.95382e-07
2.65502e-07
1.65147e-07
1.6262e-07
1.61734e-07
1.61708e-07
1.61699e-07
1.617e-07
1.617e-07
1.61701e-07
1.61699e-07
1.61693e-07
1.61609e-07
1.61469e-07
1.59443e-07
1.57896e-07
1.29535e-07
1.23736e-07
5.7471e-06
1.23739e-05
5.97109e-07
2.65781e-07
1.65136e-07
1.626e-07
1.61711e-07
1.61684e-07
1.61676e-07
1.61676e-07
1.61677e-07
1.61677e-07
1.61676e-07
1.6167e-07
1.61585e-07
1.61445e-07
1.59414e-07
1.57865e-07
1.29458e-07
1.23668e-07
5.74686e-06
1.23741e-05
5.97125e-07
2.65785e-07
1.65137e-07
1.62599e-07
1.6171e-07
1.61684e-07
1.61676e-07
1.61676e-07
1.61676e-07
1.61677e-07
1.61675e-07
1.6167e-07
1.61585e-07
1.61445e-07
1.59413e-07
1.57864e-07
1.29457e-07
1.23667e-07
5.74612e-06
1.23744e-05
5.97143e-07
2.6579e-07
1.65136e-07
1.62599e-07
1.6171e-07
1.61684e-07
1.61675e-07
1.61675e-07
1.61676e-07
1.61676e-07
1.61675e-07
1.61669e-07
1.61584e-07
1.61444e-07
1.59413e-07
1.57864e-07