/*--------------------------------*- C++ -*----------------------------------*\
  =========                 |
  \\      /  F ield         | OpenFOAM: The Open Source CFD Toolbox
   \\    /   O peration     | Website:  https://openfoam.org
    \\  /    A nd           | Version:  8
     \\/     M anipulation  |
\*---------------------------------------------------------------------------*/
FoamFile
{
    version     2.0;
    format      ascii;
    class       volScalarField;
    location    "0.7";
    object      H2;
}
// * * * * * * * * * * * * * * * * * * * * * * * * * * * * * * * * * * * * * //

dimensions      [0 1 -1 0 0 0 0];

internalField   nonuniform List<scalar> 
180000
(
-7.85548e-38
-2.04079e-32
-4.9826e-27
-1.13249e-21
-2.3734e-16
-9.70623e-38
-2.51086e-32
-6.10188e-27
-1.37991e-21
-2.87654e-16
-9.75263e-38
-2.52273e-32
-6.13035e-27
-1.38626e-21
-2.88956e-16
-9.88698e-38
-2.55753e-32
-6.21501e-27
-1.40541e-21
-2.92953e-16
-9.88936e-38
-2.5582e-32
-6.21674e-27
-1.40583e-21
-2.93047e-16
-9.89254e-38
-2.55911e-32
-6.21923e-27
-1.40646e-21
-2.93193e-16
-9.89134e-38
-2.55883e-32
-6.21859e-27
-1.40633e-21
-2.9317e-16
-9.88982e-38
-2.55846e-32
-6.21776e-27
-1.40616e-21
-2.93139e-16
-9.88907e-38
-2.55827e-32
-6.21734e-27
-1.40607e-21
-2.93122e-16
-9.88852e-38
-2.55814e-32
-6.21703e-27
-1.406e-21
-2.93109e-16
-9.88852e-38
-2.55814e-32
-6.21703e-27
-1.406e-21
-2.93109e-16
-9.88907e-38
-2.55827e-32
-6.21734e-27
-1.40607e-21
-2.93122e-16
-9.88982e-38
-2.55846e-32
-6.21776e-27
-1.40616e-21
-2.93139e-16
-9.89134e-38
-2.55883e-32
-6.21859e-27
-1.40633e-21
-2.9317e-16
-9.89254e-38
-2.55911e-32
-6.21923e-27
-1.40646e-21
-2.93193e-16
-9.88936e-38
-2.5582e-32
-6.21674e-27
-1.40583e-21
-2.93047e-16
-9.88698e-38
-2.55753e-32
-6.21501e-27
-1.40541e-21
-2.92953e-16
-9.75263e-38
-2.52273e-32
-6.13036e-27
-1.38626e-21
-2.88956e-16
-9.70623e-38
-2.51086e-32
-6.10188e-27
-1.37991e-21
-2.87654e-16
-7.85548e-38
-2.04079e-32
-4.9826e-27
-1.13249e-21
-2.3734e-16
-8.14854e-38
-2.38653e-32
-9.38381e-27
-6.30061e-21
-7.82088e-15
-1.00336e-37
-2.90266e-32
-1.11426e-26
-7.36643e-21
-9.13826e-15
-1.00808e-37
-2.91567e-32
-1.11867e-26
-7.39251e-21
-9.16981e-15
-1.02176e-37
-2.95383e-32
-1.13193e-26
-7.4745e-21
-9.27286e-15
-1.022e-37
-2.95457e-32
-1.13222e-26
-7.47639e-21
-9.27531e-15
-1.02232e-37
-2.95554e-32
-1.13259e-26
-7.47902e-21
-9.27905e-15
-1.0222e-37
-2.95524e-32
-1.1325e-26
-7.47858e-21
-9.27857e-15
-1.02205e-37
-2.95485e-32
-1.13239e-26
-7.478e-21
-9.27791e-15
-1.02197e-37
-2.95465e-32
-1.13233e-26
-7.47769e-21
-9.27754e-15
-1.02192e-37
-2.95451e-32
-1.13229e-26
-7.47747e-21
-9.27726e-15
-1.02192e-37
-2.95451e-32
-1.13229e-26
-7.47747e-21
-9.27726e-15
-1.02197e-37
-2.95465e-32
-1.13233e-26
-7.47769e-21
-9.27754e-15
-1.02205e-37
-2.95485e-32
-1.13239e-26
-7.478e-21
-9.27791e-15
-1.0222e-37
-2.95524e-32
-1.1325e-26
-7.47858e-21
-9.27857e-15
-1.02232e-37
-2.95554e-32
-1.13259e-26
-7.47902e-21
-9.27905e-15
-1.022e-37
-2.95457e-32
-1.13222e-26
-7.47639e-21
-9.27531e-15
-1.02176e-37
-2.95383e-32
-1.13193e-26
-7.4745e-21
-9.27286e-15
-1.00808e-37
-2.91567e-32
-1.11867e-26
-7.39251e-21
-9.16981e-15
-1.00336e-37
-2.90266e-32
-1.11426e-26
-7.36643e-21
-9.13826e-15
-8.14854e-38
-2.38653e-32
-9.38381e-27
-6.30061e-21
-7.82088e-15
-2.84177e-37
-2.51545e-31
-2.92184e-25
-3.31324e-19
-4.75122e-13
-3.22808e-37
-2.81693e-31
-3.28026e-25
-3.75494e-19
-5.42132e-13
-3.23751e-37
-2.82403e-31
-3.28847e-25
-3.76486e-19
-5.43617e-13
-3.26446e-37
-2.8453e-31
-3.31445e-25
-3.79771e-19
-5.487e-13
-3.26498e-37
-2.84575e-31
-3.31502e-25
-3.79844e-19
-5.48816e-13
-3.26529e-37
-2.84606e-31
-3.31561e-25
-3.79943e-19
-5.48996e-13
-3.26511e-37
-2.84595e-31
-3.31548e-25
-3.79927e-19
-5.48972e-13
-3.26489e-37
-2.8458e-31
-3.31532e-25
-3.79905e-19
-5.48939e-13
-3.26478e-37
-2.84573e-31
-3.31524e-25
-3.79894e-19
-5.48922e-13
-3.26473e-37
-2.8457e-31
-3.31519e-25
-3.79886e-19
-5.48908e-13
-3.26473e-37
-2.8457e-31
-3.31519e-25
-3.79886e-19
-5.48908e-13
-3.26478e-37
-2.84573e-31
-3.31524e-25
-3.79894e-19
-5.48922e-13
-3.26489e-37
-2.8458e-31
-3.31532e-25
-3.79905e-19
-5.48939e-13
-3.26511e-37
-2.84595e-31
-3.31548e-25
-3.79927e-19
-5.48972e-13
-3.26529e-37
-2.84606e-31
-3.31561e-25
-3.79943e-19
-5.48996e-13
-3.26498e-37
-2.84575e-31
-3.31502e-25
-3.79844e-19
-5.48816e-13
-3.26446e-37
-2.8453e-31
-3.31445e-25
-3.79771e-19
-5.487e-13
-3.23751e-37
-2.82403e-31
-3.28847e-25
-3.76486e-19
-5.43617e-13
-3.22808e-37
-2.81693e-31
-3.28026e-25
-3.75494e-19
-5.42132e-13
-2.84177e-37
-2.51545e-31
-2.92184e-25
-3.31324e-19
-4.75122e-13
-6.24684e-36
-6.72984e-30
-8.08153e-24
-8.97824e-18
-1.24965e-11
-6.72417e-36
-7.31093e-30
-8.85836e-24
-9.9432e-18
-1.39307e-11
-6.73523e-36
-7.32391e-30
-8.8753e-24
-9.96379e-18
-1.39608e-11
-6.76575e-36
-7.36291e-30
-8.92974e-24
-1.00336e-17
-1.4067e-11
-6.76634e-36
-7.36371e-30
-8.9309e-24
-1.00351e-17
-1.40693e-11
-6.76598e-36
-7.36391e-30
-8.93189e-24
-1.00371e-17
-1.4073e-11
-6.76585e-36
-7.36373e-30
-8.93164e-24
-1.00367e-17
-1.40725e-11
-6.76569e-36
-7.3635e-30
-8.93131e-24
-1.00363e-17
-1.40718e-11
-6.76565e-36
-7.36341e-30
-8.93116e-24
-1.0036e-17
-1.40715e-11
-6.76567e-36
-7.36339e-30
-8.93108e-24
-1.00359e-17
-1.40712e-11
-6.76567e-36
-7.36339e-30
-8.93108e-24
-1.00359e-17
-1.40712e-11
-6.76565e-36
-7.36341e-30
-8.93116e-24
-1.0036e-17
-1.40715e-11
-6.76569e-36
-7.3635e-30
-8.93131e-24
-1.00363e-17
-1.40718e-11
-6.76585e-36
-7.36373e-30
-8.93164e-24
-1.00367e-17
-1.40725e-11
-6.76598e-36
-7.36391e-30
-8.93189e-24
-1.00371e-17
-1.4073e-11
-6.76634e-36
-7.36371e-30
-8.9309e-24
-1.00351e-17
-1.40693e-11
-6.76575e-36
-7.36291e-30
-8.92974e-24
-1.00336e-17
-1.4067e-11
-6.73523e-36
-7.32391e-30
-8.8753e-24
-9.9638e-18
-1.39608e-11
-6.72418e-36
-7.31093e-30
-8.85836e-24
-9.9432e-18
-1.39307e-11
-6.24684e-36
-6.72984e-30
-8.08153e-24
-8.97824e-18
-1.24965e-11
-1.04434e-34
-1.08777e-28
-1.25461e-22
-1.33173e-16
-1.77135e-10
-1.09765e-34
-1.15495e-28
-1.3438e-22
-1.44044e-16
-1.9272e-10
-1.0989e-34
-1.15644e-28
-1.3457e-22
-1.44269e-16
-1.93035e-10
-1.10204e-34
-1.16073e-28
-1.35175e-22
-1.45036e-16
-1.94166e-10
-1.1021e-34
-1.16082e-28
-1.35188e-22
-1.45052e-16
-1.94191e-10
-1.10198e-34
-1.16078e-28
-1.35195e-22
-1.45072e-16
-1.94229e-10
-1.10197e-34
-1.16076e-28
-1.35192e-22
-1.45068e-16
-1.94225e-10
-1.10196e-34
-1.16074e-28
-1.35189e-22
-1.45063e-16
-1.94218e-10
-1.10196e-34
-1.16073e-28
-1.35187e-22
-1.45061e-16
-1.94214e-10
-1.10197e-34
-1.16074e-28
-1.35187e-22
-1.45059e-16
-1.94211e-10
-1.10197e-34
-1.16074e-28
-1.35187e-22
-1.45059e-16
-1.94211e-10
-1.10196e-34
-1.16073e-28
-1.35187e-22
-1.45061e-16
-1.94214e-10
-1.10196e-34
-1.16074e-28
-1.35189e-22
-1.45063e-16
-1.94218e-10
-1.10197e-34
-1.16076e-28
-1.35192e-22
-1.45068e-16
-1.94225e-10
-1.10198e-34
-1.16078e-28
-1.35195e-22
-1.45072e-16
-1.94229e-10
-1.1021e-34
-1.16082e-28
-1.35188e-22
-1.45052e-16
-1.94191e-10
-1.10204e-34
-1.16073e-28
-1.35175e-22
-1.45036e-16
-1.94166e-10
-1.0989e-34
-1.15644e-28
-1.3457e-22
-1.44269e-16
-1.93035e-10
-1.09765e-34
-1.15495e-28
-1.3438e-22
-1.44044e-16
-1.92721e-10
-1.04434e-34
-1.08777e-28
-1.25461e-22
-1.33173e-16
-1.77135e-10
-1.13249e-33
-1.11928e-27
-1.22336e-21
-1.22417e-15
-1.5331e-09
-1.16391e-33
-1.16145e-27
-1.27962e-21
-1.2919e-15
-1.62554e-09
-1.16472e-33
-1.16241e-27
-1.28083e-21
-1.29328e-15
-1.62735e-09
-1.16628e-33
-1.1649e-27
-1.28449e-21
-1.29794e-15
-1.63394e-09
-1.16631e-33
-1.16495e-27
-1.28457e-21
-1.29804e-15
-1.63409e-09
-1.16612e-33
-1.16485e-27
-1.28457e-21
-1.29813e-15
-1.63431e-09
-1.16612e-33
-1.16485e-27
-1.28455e-21
-1.29812e-15
-1.63428e-09
-1.16613e-33
-1.16484e-27
-1.28454e-21
-1.29809e-15
-1.63425e-09
-1.16614e-33
-1.16484e-27
-1.28454e-21
-1.29808e-15
-1.63423e-09
-1.16615e-33
-1.16485e-27
-1.28454e-21
-1.29807e-15
-1.63421e-09
-1.16615e-33
-1.16485e-27
-1.28454e-21
-1.29807e-15
-1.63421e-09
-1.16614e-33
-1.16484e-27
-1.28454e-21
-1.29808e-15
-1.63423e-09
-1.16613e-33
-1.16484e-27
-1.28454e-21
-1.29809e-15
-1.63425e-09
-1.16612e-33
-1.16485e-27
-1.28455e-21
-1.29812e-15
-1.63428e-09
-1.16612e-33
-1.16485e-27
-1.28457e-21
-1.29813e-15
-1.63431e-09
-1.16631e-33
-1.16495e-27
-1.28457e-21
-1.29804e-15
-1.63409e-09
-1.16628e-33
-1.1649e-27
-1.28449e-21
-1.29794e-15
-1.63394e-09
-1.16472e-33
-1.16241e-27
-1.28083e-21
-1.29328e-15
-1.62735e-09
-1.16391e-33
-1.16145e-27
-1.27962e-21
-1.2919e-15
-1.62554e-09
-1.13249e-33
-1.11928e-27
-1.22336e-21
-1.22417e-15
-1.5331e-09
-8.50125e-33
-7.87436e-27
-8.04156e-21
-7.45715e-15
-8.61083e-09
-8.5422e-33
-7.9814e-27
-8.20622e-21
-7.66599e-15
-8.87527e-09
-8.54456e-33
-7.98454e-27
-8.21013e-21
-7.67034e-15
-8.88033e-09
-8.54325e-33
-7.98904e-27
-8.21983e-21
-7.68414e-15
-8.89888e-09
-8.54324e-33
-7.98916e-27
-8.22009e-21
-7.6845e-15
-8.89938e-09
-8.54139e-33
-7.98804e-27
-8.21955e-21
-7.68455e-15
-8.89992e-09
-8.5415e-33
-7.98809e-27
-8.21957e-21
-7.68453e-15
-8.8999e-09
-8.54165e-33
-7.98815e-27
-8.21959e-21
-7.68448e-15
-8.89983e-09
-8.54178e-33
-7.98822e-27
-8.21963e-21
-7.68447e-15
-8.89981e-09
-8.54196e-33
-7.98833e-27
-8.21969e-21
-7.68447e-15
-8.89979e-09
-8.54196e-33
-7.98833e-27
-8.21969e-21
-7.68447e-15
-8.89979e-09
-8.54178e-33
-7.98822e-27
-8.21963e-21
-7.68447e-15
-8.89981e-09
-8.54165e-33
-7.98815e-27
-8.21959e-21
-7.68448e-15
-8.89983e-09
-8.5415e-33
-7.98809e-27
-8.21957e-21
-7.68453e-15
-8.8999e-09
-8.54139e-33
-7.98804e-27
-8.21955e-21
-7.68455e-15
-8.89992e-09
-8.54324e-33
-7.98916e-27
-8.22009e-21
-7.6845e-15
-8.89938e-09
-8.54325e-33
-7.98904e-27
-8.21983e-21
-7.68414e-15
-8.89888e-09
-8.54456e-33
-7.98454e-27
-8.21013e-21
-7.67034e-15
-8.88033e-09
-8.5422e-33
-7.9814e-27
-8.20622e-21
-7.66599e-15
-8.87527e-09
-8.50125e-33
-7.87436e-27
-8.04156e-21
-7.45715e-15
-8.61083e-09
-4.60201e-32
-3.92825e-26
-3.66904e-20
-3.06383e-14
-3.13605e-08
-4.51955e-32
-3.88582e-26
-3.64642e-20
-3.05832e-14
-3.12448e-08
-4.51892e-32
-3.88561e-26
-3.64638e-20
-3.05836e-14
-3.12425e-08
-4.51145e-32
-3.8815e-26
-3.64417e-20
-3.05769e-14
-3.12341e-08
-4.51133e-32
-3.88145e-26
-3.64416e-20
-3.05772e-14
-3.12344e-08
-4.51013e-32
-3.88068e-26
-3.64369e-20
-3.05751e-14
-3.12336e-08
-4.51024e-32
-3.88075e-26
-3.64375e-20
-3.05755e-14
-3.1234e-08
-4.51039e-32
-3.88084e-26
-3.64382e-20
-3.05758e-14
-3.12344e-08
-4.51049e-32
-3.88091e-26
-3.64386e-20
-3.05761e-14
-3.12347e-08
-4.51061e-32
-3.88099e-26
-3.64392e-20
-3.05763e-14
-3.12349e-08
-4.51061e-32
-3.88099e-26
-3.64392e-20
-3.05763e-14
-3.12349e-08
-4.51049e-32
-3.88091e-26
-3.64386e-20
-3.05761e-14
-3.12347e-08
-4.51039e-32
-3.88084e-26
-3.64382e-20
-3.05758e-14
-3.12344e-08
-4.51024e-32
-3.88075e-26
-3.64375e-20
-3.05755e-14
-3.1234e-08
-4.51013e-32
-3.88068e-26
-3.64369e-20
-3.05751e-14
-3.12336e-08
-4.51133e-32
-3.88145e-26
-3.64416e-20
-3.05772e-14
-3.12344e-08
-4.51145e-32
-3.8815e-26
-3.64417e-20
-3.05769e-14
-3.12341e-08
-4.51892e-32
-3.88561e-26
-3.64638e-20
-3.05836e-14
-3.12425e-08
-4.51955e-32
-3.88582e-26
-3.64642e-20
-3.05832e-14
-3.12448e-08
-4.60201e-32
-3.92825e-26
-3.66904e-20
-3.06383e-14
-3.13605e-08
-1.81521e-31
-1.38618e-25
-1.1343e-19
-7.96439e-14
-6.4131e-08
-1.74144e-31
-1.33589e-25
-1.09344e-19
-7.64998e-14
-6.04551e-08
-1.74046e-31
-1.33518e-25
-1.0928e-19
-7.64449e-14
-6.03855e-08
-1.73493e-31
-1.33145e-25
-1.08988e-19
-7.62237e-14
-6.01311e-08
-1.73484e-31
-1.33139e-25
-1.08984e-19
-7.62207e-14
-6.01274e-08
-1.73429e-31
-1.33105e-25
-1.08962e-19
-7.62081e-14
-6.01169e-08
-1.73436e-31
-1.33109e-25
-1.08965e-19
-7.62105e-14
-6.01195e-08
-1.73445e-31
-1.33115e-25
-1.08969e-19
-7.62133e-14
-6.01225e-08
-1.7345e-31
-1.33118e-25
-1.08972e-19
-7.62149e-14
-6.01241e-08
-1.73456e-31
-1.33122e-25
-1.08974e-19
-7.62164e-14
-6.01255e-08
-1.73456e-31
-1.33122e-25
-1.08974e-19
-7.62164e-14
-6.01255e-08
-1.7345e-31
-1.33118e-25
-1.08972e-19
-7.62149e-14
-6.01241e-08
-1.73445e-31
-1.33115e-25
-1.08969e-19
-7.62133e-14
-6.01225e-08
-1.73436e-31
-1.33109e-25
-1.08965e-19
-7.62105e-14
-6.01195e-08
-1.73429e-31
-1.33105e-25
-1.08962e-19
-7.62081e-14
-6.01169e-08
-1.73484e-31
-1.33139e-25
-1.08984e-19
-7.62207e-14
-6.01274e-08
-1.73493e-31
-1.33145e-25
-1.08988e-19
-7.62237e-14
-6.01311e-08
-1.74046e-31
-1.33518e-25
-1.0928e-19
-7.64449e-14
-6.03855e-08
-1.74144e-31
-1.33589e-25
-1.09344e-19
-7.64998e-14
-6.04551e-08
-1.81521e-31
-1.38618e-25
-1.1343e-19
-7.96439e-14
-6.4131e-08
-5.05793e-31
-3.22033e-25
-2.02012e-19
-8.50141e-14
-3.24895e-10
-4.73507e-31
-3.00897e-25
-1.85908e-19
-7.34736e-14
1.09316e-08
-4.73028e-31
-3.0056e-25
-1.8563e-19
-7.32593e-14
1.11481e-08
-4.70774e-31
-2.99097e-25
-1.84536e-19
-7.24757e-14
1.19162e-08
-4.70738e-31
-2.99074e-25
-1.84519e-19
-7.24632e-14
1.19294e-08
-4.70567e-31
-2.98978e-25
-1.84462e-19
-7.24316e-14
1.19563e-08
-4.70592e-31
-2.98994e-25
-1.84473e-19
-7.24387e-14
1.19501e-08
-4.70625e-31
-2.99013e-25
-1.84487e-19
-7.24474e-14
1.19423e-08
-4.70644e-31
-2.99025e-25
-1.84495e-19
-7.24521e-14
1.19383e-08
-4.70663e-31
-2.99036e-25
-1.84502e-19
-7.2456e-14
1.19351e-08
-4.70663e-31
-2.99036e-25
-1.84502e-19
-7.2456e-14
1.19351e-08
-4.70644e-31
-2.99025e-25
-1.84495e-19
-7.24521e-14
1.19383e-08
-4.70625e-31
-2.99013e-25
-1.84487e-19
-7.24474e-14
1.19423e-08
-4.70592e-31
-2.98994e-25
-1.84473e-19
-7.24387e-14
1.19501e-08
-4.70567e-31
-2.98978e-25
-1.84462e-19
-7.24316e-14
1.19563e-08
-4.70738e-31
-2.99074e-25
-1.84519e-19
-7.24632e-14
1.19294e-08
-4.70774e-31
-2.99097e-25
-1.84536e-19
-7.24757e-14
1.19162e-08
-4.73028e-31
-3.0056e-25
-1.8563e-19
-7.32593e-14
1.11481e-08
-4.73507e-31
-3.00897e-25
-1.85908e-19
-7.34736e-14
1.09316e-08
-5.05793e-31
-3.22033e-25
-2.02012e-19
-8.50141e-14
-3.24895e-10
-1.1574e-30
-6.24444e-25
-3.18058e-19
-1.00611e-13
-7.76625e-09
-1.05956e-30
-5.67295e-25
-2.81215e-19
-8.05014e-14
3.51047e-09
-1.05805e-30
-5.66351e-25
-2.80566e-19
-8.01262e-14
3.72648e-09
-1.05147e-30
-5.62512e-25
-2.78109e-19
-7.8773e-14
4.49232e-09
-1.05136e-30
-5.62453e-25
-2.78071e-19
-7.87513e-14
4.50522e-09
-1.05094e-30
-5.6224e-25
-2.7796e-19
-7.87002e-14
4.53194e-09
-1.05101e-30
-5.62279e-25
-2.77984e-19
-7.87123e-14
4.52557e-09
-1.05111e-30
-5.6233e-25
-2.78014e-19
-7.87273e-14
4.51758e-09
-1.05116e-30
-5.62358e-25
-2.78031e-19
-7.87353e-14
4.51342e-09
-1.05121e-30
-5.62383e-25
-2.78045e-19
-7.87417e-14
4.51015e-09
-1.05121e-30
-5.62383e-25
-2.78045e-19
-7.87417e-14
4.51015e-09
-1.05116e-30
-5.62358e-25
-2.78031e-19
-7.87353e-14
4.51342e-09
-1.05111e-30
-5.6233e-25
-2.78014e-19
-7.87273e-14
4.51758e-09
-1.05101e-30
-5.62279e-25
-2.77984e-19
-7.87123e-14
4.52557e-09
-1.05094e-30
-5.6224e-25
-2.7796e-19
-7.87002e-14
4.53194e-09
-1.05136e-30
-5.62453e-25
-2.78071e-19
-7.87513e-14
4.50522e-09
-1.05147e-30
-5.62512e-25
-2.78109e-19
-7.8773e-14
4.49232e-09
-1.05805e-30
-5.66351e-25
-2.80566e-19
-8.01262e-14
3.72648e-09
-1.05956e-30
-5.67295e-25
-2.81215e-19
-8.05014e-14
3.51047e-09
-1.1574e-30
-6.24444e-25
-3.18058e-19
-1.00611e-13
-7.76626e-09
-2.3493e-30
-1.10018e-24
-4.77367e-19
-1.26343e-13
-1.50521e-08
-2.11146e-30
-9.77684e-25
-4.10496e-19
-9.74946e-14
-3.75697e-09
-2.10771e-30
-9.75635e-25
-4.09313e-19
-9.69573e-14
-3.54154e-09
-2.09209e-30
-9.67557e-25
-4.04904e-19
-9.50287e-14
-2.77851e-09
-2.09185e-30
-9.67434e-25
-4.04836e-19
-9.49981e-14
-2.76592e-09
-2.09095e-30
-9.67028e-25
-4.0465e-19
-9.49271e-14
-2.73947e-09
-2.09112e-30
-9.67109e-25
-4.04693e-19
-9.49445e-14
-2.74601e-09
-2.09135e-30
-9.67217e-25
-4.04748e-19
-9.49663e-14
-2.75425e-09
-2.09147e-30
-9.67274e-25
-4.04777e-19
-9.49777e-14
-2.7585e-09
-2.09158e-30
-9.67326e-25
-4.04802e-19
-9.49869e-14
-2.76187e-09
-2.09158e-30
-9.67326e-25
-4.04802e-19
-9.49869e-14
-2.76187e-09
-2.09147e-30
-9.67274e-25
-4.04777e-19
-9.49777e-14
-2.7585e-09
-2.09135e-30
-9.67217e-25
-4.04748e-19
-9.49663e-14
-2.75425e-09
-2.09112e-30
-9.67109e-25
-4.04693e-19
-9.49445e-14
-2.74601e-09
-2.09095e-30
-9.67028e-25
-4.0465e-19
-9.49271e-14
-2.73947e-09
-2.09185e-30
-9.67434e-25
-4.04836e-19
-9.49981e-14
-2.76592e-09
-2.09209e-30
-9.67557e-25
-4.04904e-19
-9.50287e-14
-2.77851e-09
-2.10771e-30
-9.75635e-25
-4.09313e-19
-9.69573e-14
-3.54154e-09
-2.11146e-30
-9.77684e-25
-4.10496e-19
-9.74946e-14
-3.75698e-09
-2.3493e-30
-1.10018e-24
-4.77367e-19
-1.26343e-13
-1.50521e-08
-4.39787e-30
-1.82399e-24
-6.96187e-19
-1.6231e-13
-2.23106e-08
-3.89808e-30
-1.59629e-24
-5.89412e-19
-1.24554e-13
-1.09982e-08
-3.89016e-30
-1.59247e-24
-5.87526e-19
-1.23853e-13
-1.07834e-08
-3.85794e-30
-1.57766e-24
-5.80553e-19
-1.21345e-13
-1.00238e-08
-3.85746e-30
-1.57744e-24
-5.80448e-19
-1.21306e-13
-1.00115e-08
-3.85574e-30
-1.57674e-24
-5.80165e-19
-1.21215e-13
-9.98541e-09
-3.85608e-30
-1.57689e-24
-5.80234e-19
-1.21238e-13
-9.99213e-09
-3.85656e-30
-1.57709e-24
-5.80323e-19
-1.21267e-13
-1.00006e-08
-3.8568e-30
-1.5772e-24
-5.80369e-19
-1.21282e-13
-1.0005e-08
-3.85704e-30
-1.57729e-24
-5.80408e-19
-1.21294e-13
-1.00084e-08
-3.85704e-30
-1.57729e-24
-5.80408e-19
-1.21294e-13
-1.00084e-08
-3.8568e-30
-1.5772e-24
-5.80369e-19
-1.21282e-13
-1.0005e-08
-3.85656e-30
-1.57709e-24
-5.80323e-19
-1.21267e-13
-1.00006e-08
-3.85608e-30
-1.57689e-24
-5.80234e-19
-1.21238e-13
-9.99213e-09
-3.85574e-30
-1.57674e-24
-5.80165e-19
-1.21215e-13
-9.98541e-09
-3.85746e-30
-1.57744e-24
-5.80448e-19
-1.21306e-13
-1.00115e-08
-3.85794e-30
-1.57766e-24
-5.80553e-19
-1.21345e-13
-1.00238e-08
-3.89016e-30
-1.59247e-24
-5.87526e-19
-1.23853e-13
-1.07834e-08
-3.89808e-30
-1.59629e-24
-5.89412e-19
-1.24554e-13
-1.09982e-08
-4.39787e-30
-1.82399e-24
-6.96187e-19
-1.6231e-13
-2.23106e-08
-7.75453e-30
-2.89207e-24
-9.91213e-19
-2.08604e-13
-2.95455e-08
-6.80735e-30
-2.50764e-24
-8.34055e-19
-1.61772e-13
-1.82168e-08
-6.79236e-30
-2.50121e-24
-8.31292e-19
-1.60908e-13
-1.80027e-08
-6.73227e-30
-2.47651e-24
-8.21124e-19
-1.57816e-13
-1.7247e-08
-6.7314e-30
-2.47615e-24
-8.20974e-19
-1.57769e-13
-1.72351e-08
-6.72833e-30
-2.47503e-24
-8.20571e-19
-1.57658e-13
-1.72095e-08
-6.72899e-30
-2.47528e-24
-8.20673e-19
-1.57687e-13
-1.72164e-08
-6.7299e-30
-2.47563e-24
-8.20807e-19
-1.57724e-13
-1.72251e-08
-6.73036e-30
-2.4758e-24
-8.20874e-19
-1.57743e-13
-1.72296e-08
-6.7308e-30
-2.47596e-24
-8.20933e-19
-1.57758e-13
-1.72331e-08
-6.7308e-30
-2.47596e-24
-8.20933e-19
-1.57758e-13
-1.72331e-08
-6.73036e-30
-2.4758e-24
-8.20874e-19
-1.57743e-13
-1.72296e-08
-6.7299e-30
-2.47563e-24
-8.20807e-19
-1.57724e-13
-1.72251e-08
-6.72899e-30
-2.47528e-24
-8.20673e-19
-1.57687e-13
-1.72164e-08
-6.72833e-30
-2.47503e-24
-8.20571e-19
-1.57658e-13
-1.72095e-08
-6.7314e-30
-2.47615e-24
-8.20974e-19
-1.57769e-13
-1.72351e-08
-6.73227e-30
-2.47651e-24
-8.21124e-19
-1.57817e-13
-1.7247e-08
-6.79236e-30
-2.50121e-24
-8.31292e-19
-1.60908e-13
-1.80027e-08
-6.80735e-30
-2.50764e-24
-8.34055e-19
-1.61772e-13
-1.82168e-08
-7.75453e-30
-2.89207e-24
-9.91213e-19
-2.08604e-13
-2.95455e-08
-1.30403e-29
-4.42319e-24
-1.37959e-18
-2.65308e-13
-3.67599e-08
-1.13782e-29
-3.8176e-24
-1.16095e-18
-2.09234e-13
-2.54159e-08
-1.1352e-29
-3.80752e-24
-1.15713e-18
-2.08205e-13
-2.52027e-08
-1.12481e-29
-3.76907e-24
-1.14312e-18
-2.0453e-13
-2.44515e-08
-1.12466e-29
-3.76852e-24
-1.14291e-18
-2.04475e-13
-2.444e-08
-1.12415e-29
-3.76683e-24
-1.14237e-18
-2.04345e-13
-2.44149e-08
-1.12427e-29
-3.76724e-24
-1.14251e-18
-2.0438e-13
-2.44219e-08
-1.12443e-29
-3.76779e-24
-1.1427e-18
-2.04425e-13
-2.4431e-08
-1.12451e-29
-3.76806e-24
-1.1428e-18
-2.04447e-13
-2.44355e-08
-1.12459e-29
-3.76831e-24
-1.14288e-18
-2.04466e-13
-2.44392e-08
-1.12459e-29
-3.76831e-24
-1.14288e-18
-2.04466e-13
-2.44392e-08
-1.12451e-29
-3.76806e-24
-1.1428e-18
-2.04447e-13
-2.44355e-08
-1.12443e-29
-3.76779e-24
-1.1427e-18
-2.04425e-13
-2.4431e-08
-1.12427e-29
-3.76724e-24
-1.14251e-18
-2.0438e-13
-2.44219e-08
-1.12415e-29
-3.76683e-24
-1.14237e-18
-2.04345e-13
-2.44149e-08
-1.12466e-29
-3.76852e-24
-1.14291e-18
-2.04475e-13
-2.444e-08
-1.12481e-29
-3.76907e-24
-1.14312e-18
-2.0453e-13
-2.44515e-08
-1.1352e-29
-3.80752e-24
-1.15713e-18
-2.08205e-13
-2.52027e-08
-1.13782e-29
-3.8176e-24
-1.16095e-18
-2.09234e-13
-2.54159e-08
-1.30403e-29
-4.42319e-24
-1.37959e-18
-2.65308e-13
-3.67599e-08
-2.10835e-29
-6.55989e-24
-1.8789e-18
-3.32498e-13
-4.39568e-08
-1.83353e-29
-5.65447e-24
-1.58704e-18
-2.67017e-13
-3.25984e-08
-1.82923e-29
-5.63951e-24
-1.58199e-18
-2.65823e-13
-3.23861e-08
-1.8123e-29
-5.5827e-24
-1.56347e-18
-2.61564e-13
-3.164e-08
-1.81207e-29
-5.58191e-24
-1.56321e-18
-2.61501e-13
-3.16289e-08
-1.81126e-29
-5.57947e-24
-1.5625e-18
-2.61352e-13
-3.16044e-08
-1.81146e-29
-5.58009e-24
-1.56269e-18
-2.61394e-13
-3.16116e-08
-1.81173e-29
-5.58093e-24
-1.56295e-18
-2.61447e-13
-3.1621e-08
-1.81187e-29
-5.58134e-24
-1.56308e-18
-2.61474e-13
-3.16256e-08
-1.81199e-29
-5.58172e-24
-1.56319e-18
-2.61497e-13
-3.16294e-08
-1.81199e-29
-5.58172e-24
-1.56319e-18
-2.61497e-13
-3.16294e-08
-1.81187e-29
-5.58134e-24
-1.56308e-18
-2.61474e-13
-3.16256e-08
-1.81173e-29
-5.58093e-24
-1.56295e-18
-2.61447e-13
-3.1621e-08
-1.81146e-29
-5.58009e-24
-1.56269e-18
-2.61394e-13
-3.16116e-08
-1.81126e-29
-5.57947e-24
-1.5625e-18
-2.61352e-13
-3.16044e-08
-1.81207e-29
-5.58191e-24
-1.56321e-18
-2.61501e-13
-3.16289e-08
-1.8123e-29
-5.5827e-24
-1.56347e-18
-2.61564e-13
-3.164e-08
-1.82923e-29
-5.63951e-24
-1.58199e-18
-2.65823e-13
-3.23861e-08
-1.83353e-29
-5.65447e-24
-1.58704e-18
-2.67017e-13
-3.25985e-08
-2.10835e-29
-6.55989e-24
-1.8789e-18
-3.32498e-13
-4.39568e-08
-3.29613e-29
-9.46969e-24
-2.5072e-18
-4.10239e-13
-5.11384e-08
-2.86273e-29
-8.17013e-24
-2.12972e-18
-3.35187e-13
-3.97667e-08
-2.85601e-29
-8.14886e-24
-2.12324e-18
-3.33829e-13
-3.95553e-08
-2.8297e-29
-8.06831e-24
-2.09954e-18
-3.28987e-13
-3.88148e-08
-2.82936e-29
-8.06723e-24
-2.09922e-18
-3.28917e-13
-3.88042e-08
-2.82815e-29
-8.06384e-24
-2.09833e-18
-3.2875e-13
-3.87803e-08
-2.82846e-29
-8.06474e-24
-2.09859e-18
-3.28798e-13
-3.87878e-08
-2.8289e-29
-8.06597e-24
-2.09893e-18
-3.28862e-13
-3.87974e-08
-2.82911e-29
-8.06658e-24
-2.0991e-18
-3.28893e-13
-3.88021e-08
-2.82931e-29
-8.06712e-24
-2.09925e-18
-3.28919e-13
-3.8806e-08
-2.82931e-29
-8.06712e-24
-2.09925e-18
-3.28919e-13
-3.8806e-08
-2.82911e-29
-8.06658e-24
-2.0991e-18
-3.28893e-13
-3.88021e-08
-2.8289e-29
-8.06597e-24
-2.09893e-18
-3.28862e-13
-3.87974e-08
-2.82846e-29
-8.06474e-24
-2.09859e-18
-3.28798e-13
-3.87878e-08
-2.82815e-29
-8.06384e-24
-2.09833e-18
-3.2875e-13
-3.87803e-08
-2.82936e-29
-8.06723e-24
-2.09922e-18
-3.28917e-13
-3.88042e-08
-2.8297e-29
-8.06831e-24
-2.09954e-18
-3.28987e-13
-3.88148e-08
-2.85601e-29
-8.14886e-24
-2.12324e-18
-3.33829e-13
-3.95553e-08
-2.86273e-29
-8.17013e-24
-2.12972e-18
-3.35188e-13
-3.97667e-08
-3.29613e-29
-9.46969e-24
-2.5072e-18
-4.10239e-13
-5.11384e-08
-5.00446e-29
-1.33464e-23
-3.28297e-18
-4.98585e-13
-5.83063e-08
-4.34685e-29
-1.15413e-23
-2.80681e-18
-4.13803e-13
-4.69224e-08
-4.33676e-29
-1.1512e-23
-2.79871e-18
-4.1228e-13
-4.6712e-08
-4.29746e-29
-1.14016e-23
-2.76916e-18
-4.06858e-13
-4.59778e-08
-4.29696e-29
-1.14002e-23
-2.76877e-18
-4.06782e-13
-4.59676e-08
-4.2952e-29
-1.13956e-23
-2.76768e-18
-4.06597e-13
-4.59445e-08
-4.29568e-29
-1.13969e-23
-2.76801e-18
-4.06653e-13
-4.59521e-08
-4.29636e-29
-1.13986e-23
-2.76846e-18
-4.06726e-13
-4.5962e-08
-4.29669e-29
-1.13995e-23
-2.76867e-18
-4.06762e-13
-4.59669e-08
-4.29699e-29
-1.14003e-23
-2.76886e-18
-4.06792e-13
-4.59708e-08
-4.29699e-29
-1.14003e-23
-2.76886e-18
-4.06792e-13
-4.59708e-08
-4.29669e-29
-1.13995e-23
-2.76867e-18
-4.06762e-13
-4.59669e-08
-4.29636e-29
-1.13986e-23
-2.76846e-18
-4.06726e-13
-4.5962e-08
-4.29568e-29
-1.13969e-23
-2.76801e-18
-4.06653e-13
-4.59521e-08
-4.2952e-29
-1.13956e-23
-2.76768e-18
-4.06597e-13
-4.59445e-08
-4.29696e-29
-1.14002e-23
-2.76877e-18
-4.06782e-13
-4.59676e-08
-4.29746e-29
-1.14016e-23
-2.76916e-18
-4.06858e-13
-4.59778e-08
-4.33677e-29
-1.1512e-23
-2.79871e-18
-4.1228e-13
-4.6712e-08
-4.34685e-29
-1.15413e-23
-2.80681e-18
-4.13803e-13
-4.69224e-08
-5.00446e-29
-1.33464e-23
-3.28297e-18
-4.98585e-13
-5.83063e-08
-7.40481e-29
-1.84118e-23
-4.22517e-18
-5.97579e-13
-6.54603e-08
-6.43845e-29
-1.59708e-23
-3.63655e-18
-5.02909e-13
-5.40656e-08
-6.42381e-29
-1.59317e-23
-3.62665e-18
-5.01222e-13
-5.38563e-08
-6.36697e-29
-1.57844e-23
-3.59057e-18
-4.95225e-13
-5.31289e-08
-6.36629e-29
-1.57826e-23
-3.59011e-18
-4.95144e-13
-5.31191e-08
-6.3638e-29
-1.57766e-23
-3.5888e-18
-4.94943e-13
-5.30969e-08
-6.36451e-29
-1.57784e-23
-3.58922e-18
-4.95007e-13
-5.31047e-08
-6.36554e-29
-1.57808e-23
-3.58979e-18
-4.9509e-13
-5.31149e-08
-6.36603e-29
-1.5782e-23
-3.59006e-18
-4.95131e-13
-5.31198e-08
-6.36649e-29
-1.5783e-23
-3.5903e-18
-4.95165e-13
-5.31239e-08
-6.36649e-29
-1.5783e-23
-3.5903e-18
-4.95165e-13
-5.31239e-08
-6.36603e-29
-1.5782e-23
-3.59006e-18
-4.95131e-13
-5.31198e-08
-6.36554e-29
-1.57808e-23
-3.58979e-18
-4.9509e-13
-5.31149e-08
-6.36451e-29
-1.57784e-23
-3.58922e-18
-4.95007e-13
-5.31047e-08
-6.3638e-29
-1.57766e-23
-3.5888e-18
-4.94943e-13
-5.30969e-08
-6.36629e-29
-1.57826e-23
-3.59011e-18
-4.95144e-13
-5.31191e-08
-6.36697e-29
-1.57844e-23
-3.59057e-18
-4.95225e-13
-5.31289e-08
-6.42381e-29
-1.59317e-23
-3.62665e-18
-5.01222e-13
-5.38563e-08
-6.43845e-29
-1.59708e-23
-3.63655e-18
-5.02909e-13
-5.40656e-08
-7.40481e-29
-1.84118e-23
-4.22517e-18
-5.97579e-13
-6.54603e-08
-1.07085e-28
-2.49165e-23
-5.35321e-18
-7.07248e-13
-7.25916e-08
-9.32624e-29
-2.1689e-23
-4.63763e-18
-6.02535e-13
-6.11891e-08
-9.30556e-29
-2.16379e-23
-4.62573e-18
-6.00685e-13
-6.0981e-08
-9.22564e-29
-2.1446e-23
-4.58245e-18
-5.9412e-13
-6.02611e-08
-9.22473e-29
-2.14437e-23
-4.58193e-18
-5.94035e-13
-6.02518e-08
-9.22132e-29
-2.14361e-23
-4.58039e-18
-5.93818e-13
-6.02305e-08
-9.22236e-29
-2.14385e-23
-4.58091e-18
-5.9389e-13
-6.02385e-08
-9.22387e-29
-2.14418e-23
-4.58162e-18
-5.93985e-13
-6.0249e-08
-9.22458e-29
-2.14434e-23
-4.58195e-18
-5.9403e-13
-6.02541e-08
-9.22524e-29
-2.14448e-23
-4.58224e-18
-5.94069e-13
-6.02582e-08
-9.22524e-29
-2.14448e-23
-4.58224e-18
-5.94069e-13
-6.02582e-08
-9.22458e-29
-2.14434e-23
-4.58195e-18
-5.9403e-13
-6.02541e-08
-9.22387e-29
-2.14418e-23
-4.58162e-18
-5.93985e-13
-6.0249e-08
-9.22236e-29
-2.14385e-23
-4.58091e-18
-5.9389e-13
-6.02385e-08
-9.22132e-29
-2.14361e-23
-4.58039e-18
-5.93818e-13
-6.02305e-08
-9.22473e-29
-2.14437e-23
-4.58193e-18
-5.94035e-13
-6.02518e-08
-9.22564e-29
-2.1446e-23
-4.58245e-18
-5.9412e-13
-6.02611e-08
-9.30557e-29
-2.1638e-23
-4.62573e-18
-6.00685e-13
-6.09811e-08
-9.32624e-29
-2.16891e-23
-4.63764e-18
-6.02536e-13
-6.11891e-08
-1.07085e-28
-2.49165e-23
-5.35321e-18
-7.07248e-13
-7.25916e-08
-1.00253e-10
-2.6548e-12
-1.28947e-14
-1.19442e-17
7.31132e-21
9.26846e-21
9.28808e-21
9.28913e-21
9.28948e-21
9.28963e-21
9.29018e-21
9.29086e-21
9.29636e-21
9.30563e-21
9.39673e-21
9.49776e-21
1.06786e-20
1.14582e-20
3.1412e-20
3.70017e-20
-1.20982e-10
-3.20876e-12
-1.58743e-14
-1.49853e-17
6.77958e-21
9.26824e-21
9.28801e-21
9.28907e-21
9.28935e-21
9.28938e-21
9.28938e-21
9.28991e-21
9.29542e-21
9.30478e-21
9.39684e-21
9.49867e-21
1.06892e-20
1.14729e-20
3.1583e-20
3.72056e-20
-1.21527e-10
-3.22163e-12
-1.59348e-14
-1.50424e-17
6.76996e-21
9.26824e-21
9.28802e-21
9.28908e-21
9.28936e-21
9.28938e-21
9.28939e-21
9.28996e-21
9.2955e-21
9.30487e-21
9.39695e-21
9.4988e-21
1.06895e-20
1.14732e-20
3.15846e-20
3.72072e-20
-1.23225e-10
-3.26187e-12
-1.61179e-14
-1.52095e-17
6.74271e-21
9.26825e-21
9.28803e-21
9.28909e-21
9.28937e-21
9.28939e-21
9.2895e-21
9.29019e-21
9.29577e-21
9.30514e-21
9.39726e-21
9.49914e-21
1.06902e-20
1.14739e-20
3.15883e-20
3.72108e-20
-1.23268e-10
-3.26274e-12
-1.61213e-14
-1.52123e-17
6.74228e-21
9.26825e-21
9.28803e-21
9.28909e-21
9.28937e-21
9.28939e-21
9.28951e-21
9.2902e-21
9.29577e-21
9.30515e-21
9.39727e-21
9.49915e-21
1.06902e-20
1.14739e-20
3.15884e-20
3.72109e-20
-1.23338e-10
-3.26408e-12
-1.61265e-14
-1.52163e-17
6.74169e-21
9.26825e-21
9.28803e-21
9.28909e-21
9.28937e-21
9.28939e-21
9.28952e-21
9.29021e-21
9.29578e-21
9.30516e-21
9.39728e-21
9.49917e-21
1.06902e-20
1.1474e-20
3.15885e-20
3.7211e-20
-1.2333e-10
-3.26383e-12
-1.61251e-14
-1.52149e-17
6.74192e-21
9.26825e-21
9.28803e-21
9.28909e-21
9.28937e-21
9.28939e-21
9.28952e-21
9.29021e-21
9.29578e-21
9.30516e-21
9.39728e-21
9.49917e-21
1.06902e-20
1.1474e-20
3.15885e-20
3.7211e-20
-1.23319e-10
-3.26349e-12
-1.61234e-14
-1.52132e-17
6.7422e-21
9.26825e-21
9.28803e-21
9.28909e-21
9.28937e-21
9.28939e-21
9.28952e-21
9.29021e-21
9.29578e-21
9.30516e-21
9.39728e-21
9.49917e-21
1.06902e-20
1.1474e-20
3.15885e-20
3.7211e-20
-1.23313e-10
-3.26331e-12
-1.61225e-14
-1.52123e-17
6.74234e-21
9.26825e-21
9.28803e-21
9.28909e-21
9.28937e-21
9.28939e-21
9.28952e-21
9.29021e-21
9.29578e-21
9.30516e-21
9.39728e-21
9.49917e-21
1.06902e-20
1.1474e-20
3.15885e-20
3.7211e-20
-1.23308e-10
-3.26318e-12
-1.61218e-14
-1.52117e-17
6.74244e-21
9.26825e-21
9.28803e-21
9.28909e-21
9.28937e-21
9.28939e-21
9.28952e-21
9.29021e-21
9.29578e-21
9.30516e-21
9.39728e-21
9.49917e-21
1.06902e-20
1.1474e-20
3.15885e-20
3.7211e-20
-1.23308e-10
-3.26318e-12
-1.61218e-14
-1.52117e-17
6.74244e-21
9.26825e-21
9.28803e-21
9.28909e-21
9.28937e-21
9.28939e-21
9.28952e-21
9.29021e-21
9.29578e-21
9.30516e-21
9.39728e-21
9.49917e-21
1.06902e-20
1.1474e-20
3.15885e-20
3.7211e-20
-1.23313e-10
-3.26331e-12
-1.61225e-14
-1.52123e-17
6.74234e-21
9.26825e-21
9.28803e-21
9.28909e-21
9.28937e-21
9.28939e-21
9.28952e-21
9.29021e-21
9.29578e-21
9.30516e-21
9.39728e-21
9.49917e-21
1.06902e-20
1.1474e-20
3.15885e-20
3.7211e-20
-1.23319e-10
-3.26349e-12
-1.61234e-14
-1.52132e-17
6.7422e-21
9.26825e-21
9.28803e-21
9.28909e-21
9.28937e-21
9.28939e-21
9.28952e-21
9.29021e-21
9.29578e-21
9.30516e-21
9.39728e-21
9.49917e-21
1.06902e-20
1.1474e-20
3.15885e-20
3.7211e-20
-1.2333e-10
-3.26383e-12
-1.61251e-14
-1.52149e-17
6.74192e-21
9.26825e-21
9.28803e-21
9.28909e-21
9.28937e-21
9.28939e-21
9.28952e-21
9.29021e-21
9.29578e-21
9.30516e-21
9.39728e-21
9.49917e-21
1.06902e-20
1.1474e-20
3.15885e-20
3.7211e-20
-1.23338e-10
-3.26408e-12
-1.61265e-14
-1.52163e-17
6.74169e-21
9.26825e-21
9.28803e-21
9.28909e-21
9.28937e-21
9.28939e-21
9.28952e-21
9.29021e-21
9.29578e-21