/*--------------------------------*- C++ -*----------------------------------*\
  =========                 |
  \\      /  F ield         | OpenFOAM: The Open Source CFD Toolbox
   \\    /   O peration     | Website:  https://openfoam.org
    \\  /    A nd           | Version:  8
     \\/     M anipulation  |
\*---------------------------------------------------------------------------*/
FoamFile
{
    version     2.0;
    format      ascii;
    class       volScalarField;
    location    "0.7";
    object      p;
}
// * * * * * * * * * * * * * * * * * * * * * * * * * * * * * * * * * * * * * //

dimensions      [0 2 -2 0 0 0 0];

internalField   nonuniform List<scalar> 
180000
(
0.00137004
0.00127276
0.00135135
0.00110522
0.00125185
0.00135849
0.00126117
0.00133975
0.00109476
0.00124036
0.00135829
0.00126096
0.00133955
0.00109459
0.00124017
0.0013573
0.00125994
0.00133858
0.00109369
0.00123927
0.00135728
0.00125991
0.00133856
0.00109366
0.00123925
0.00135718
0.00125981
0.00133847
0.00109357
0.00123916
0.00135719
0.00125981
0.00133848
0.00109358
0.00123917
0.0013572
0.00125982
0.00133849
0.00109358
0.00123918
0.0013572
0.00125983
0.00133849
0.00109359
0.00123918
0.00135721
0.00125983
0.0013385
0.00109359
0.00123919
0.00135721
0.00125983
0.0013385
0.00109359
0.00123919
0.0013572
0.00125983
0.00133849
0.00109359
0.00123918
0.0013572
0.00125982
0.00133849
0.00109358
0.00123918
0.00135719
0.00125981
0.00133848
0.00109358
0.00123917
0.00135718
0.00125981
0.00133847
0.00109357
0.00123916
0.00135728
0.00125991
0.00133856
0.00109366
0.00123925
0.0013573
0.00125994
0.00133858
0.00109369
0.00123927
0.00135829
0.00126096
0.00133955
0.00109459
0.00124017
0.00135849
0.00126117
0.00133975
0.00109476
0.00124036
0.00137004
0.00127276
0.00135135
0.00110522
0.00125185
0.000808483
0.000815628
0.0008114
0.00079808
0.000816151
0.000810134
0.000815472
0.000812684
0.000795954
0.000815639
0.000810164
0.00081547
0.000812707
0.00079592
0.000815632
0.00081028
0.000815431
0.000812789
0.000795715
0.000815569
0.000810283
0.00081543
0.000812791
0.000795709
0.000815567
0.000810292
0.000815424
0.000812796
0.000795687
0.000815559
0.000810291
0.000815424
0.000812795
0.000795688
0.000815559
0.000810289
0.000815424
0.000812794
0.000795688
0.000815559
0.000810288
0.000815424
0.000812793
0.000795689
0.000815559
0.000810287
0.000815424
0.000812792
0.00079569
0.00081556
0.000810287
0.000815424
0.000812792
0.00079569
0.00081556
0.000810288
0.000815424
0.000812793
0.000795689
0.000815559
0.000810289
0.000815424
0.000812794
0.000795688
0.000815559
0.000810291
0.000815424
0.000812795
0.000795688
0.000815559
0.000810292
0.000815424
0.000812796
0.000795687
0.000815559
0.000810283
0.00081543
0.000812791
0.000795709
0.000815567
0.00081028
0.000815431
0.000812789
0.000795715
0.000815569
0.000810164
0.00081547
0.000812707
0.00079592
0.000815632
0.000810134
0.000815472
0.000812684
0.000795954
0.000815639
0.000808483
0.000815628
0.0008114
0.00079808
0.000816151
0.000625707
0.000614489
0.000624232
0.000586479
0.000616336
0.000624331
0.000613162
0.000622904
0.0005841
0.00061497
0.00062431
0.000613141
0.000622884
0.000584062
0.00061495
0.00062417
0.000612996
0.000622751
0.000583826
0.000614814
0.000624167
0.000612992
0.000622748
0.00058382
0.000614811
0.000624151
0.000612975
0.000622733
0.000583794
0.000614796
0.000624152
0.000612976
0.000622733
0.000583795
0.000614796
0.000624152
0.000612975
0.000622734
0.000583795
0.000614796
0.000624152
0.000612976
0.000622734
0.000583796
0.000614797
0.000624153
0.000612977
0.000622735
0.000583797
0.000614798
0.000624153
0.000612977
0.000622735
0.000583797
0.000614798
0.000624152
0.000612976
0.000622734
0.000583796
0.000614797
0.000624152
0.000612975
0.000622734
0.000583795
0.000614796
0.000624152
0.000612976
0.000622733
0.000583795
0.000614796
0.000624151
0.000612975
0.000622733
0.000583794
0.000614796
0.000624167
0.000612992
0.000622748
0.00058382
0.000614811
0.00062417
0.000612996
0.000622751
0.000583826
0.000614814
0.00062431
0.000613141
0.000622884
0.000584062
0.00061495
0.000624331
0.000613162
0.000622904
0.0005841
0.00061497
0.000625707
0.000614489
0.000624232
0.000586479
0.000616336
0.000666926
0.000634949
0.000662038
0.000575161
0.000635631
0.000663255
0.000631133
0.000658336
0.000571327
0.000631879
0.000663191
0.000631067
0.000658273
0.000571265
0.000631818
0.000662843
0.000630692
0.00065793
0.000570895
0.000631485
0.000662834
0.000630682
0.000657922
0.000570885
0.000631476
0.000662798
0.000630643
0.000657888
0.000570845
0.000631443
0.000662799
0.000630644
0.000657889
0.000570846
0.000631445
0.000662801
0.000630645
0.000657892
0.000570847
0.000631446
0.000662803
0.000630647
0.000657894
0.000570848
0.000631448
0.000662805
0.000630649
0.000657896
0.00057085
0.000631451
0.000662805
0.000630649
0.000657896
0.00057085
0.000631451
0.000662803
0.000630647
0.000657894
0.000570848
0.000631448
0.000662801
0.000630645
0.000657892
0.000570847
0.000631446
0.000662799
0.000630644
0.000657889
0.000570846
0.000631445
0.000662798
0.000630643
0.000657888
0.000570845
0.000631443
0.000662834
0.000630682
0.000657922
0.000570885
0.000631476
0.000662843
0.000630692
0.00065793
0.000570895
0.000631485
0.000663191
0.000631067
0.000658273
0.000571265
0.000631818
0.000663255
0.000631133
0.000658336
0.000571327
0.000631879
0.000666926
0.000634949
0.000662038
0.000575161
0.000635631
0.000697661
0.000666261
0.000693489
0.000603547
0.000669683
0.000694239
0.000662375
0.000689974
0.000599571
0.00066587
0.000694178
0.000662307
0.000689913
0.000599505
0.000665807
0.000693837
0.000661912
0.000689572
0.000599111
0.000665454
0.000693828
0.000661902
0.000689564
0.0005991
0.000665445
0.000693792
0.000661859
0.000689529
0.000599058
0.00066541
0.000693794
0.000661861
0.000689531
0.000599059
0.000665411
0.000693795
0.000661862
0.000689532
0.000599059
0.000665413
0.000693797
0.000661864
0.000689534
0.000599061
0.000665415
0.000693799
0.000661866
0.000689537
0.000599063
0.000665417
0.000693799
0.000661866
0.000689537
0.000599063
0.000665417
0.000693797
0.000661864
0.000689534
0.000599061
0.000665415
0.000693795
0.000661862
0.000689532
0.000599059
0.000665413
0.000693794
0.000661861
0.000689531
0.000599059
0.000665411
0.000693792
0.000661859
0.000689529
0.000599058
0.00066541
0.000693828
0.000661902
0.000689564
0.0005991
0.000665445
0.000693837
0.000661912
0.000689572
0.000599111
0.000665454
0.000694178
0.000662307
0.000689913
0.000599505
0.000665807
0.000694239
0.000662375
0.000689974
0.000599571
0.00066587
0.000697661
0.000666261
0.000693489
0.000603547
0.000669683
0.000698931
0.000671422
0.000695926
0.000613711
0.000679187
0.000696017
0.000667993
0.000692918
0.000610017
0.00067585
0.000695965
0.000667932
0.000692866
0.000609956
0.000675794
0.000695656
0.000667565
0.000692556
0.000609574
0.000675465
0.000695648
0.000667555
0.000692548
0.000609564
0.000675457
0.000695614
0.000667515
0.000692515
0.000609522
0.000675423
0.000695615
0.000667516
0.000692516
0.000609523
0.000675424
0.000695616
0.000667516
0.000692517
0.000609523
0.000675425
0.000695617
0.000667518
0.000692519
0.000609524
0.000675427
0.000695619
0.00066752
0.000692521
0.000609526
0.000675429
0.000695619
0.00066752
0.000692521
0.000609526
0.000675429
0.000695617
0.000667518
0.000692519
0.000609524
0.000675427
0.000695616
0.000667516
0.000692517
0.000609523
0.000675425
0.000695615
0.000667516
0.000692516
0.000609523
0.000675424
0.000695614
0.000667515
0.000692515
0.000609522
0.000675423
0.000695648
0.000667555
0.000692548
0.000609564
0.000675457
0.000695656
0.000667565
0.000692556
0.000609574
0.000675465
0.000695965
0.000667932
0.000692866
0.000609956
0.000675794
0.000696017
0.000667993
0.000692918
0.000610017
0.00067585
0.000698931
0.000671422
0.000695926
0.000613711
0.000679187
0.000693041
0.000666775
0.000690615
0.000611735
0.000678921
0.000690271
0.000663551
0.000687769
0.000608225
0.000675832
0.000690221
0.000663494
0.000687719
0.000608166
0.00067578
0.000689915
0.000663135
0.000687412
0.000607789
0.000675458
0.000689906
0.000663125
0.000687404
0.000607779
0.00067545
0.000689872
0.000663085
0.000687371
0.000607737
0.000675415
0.000689873
0.000663086
0.000687372
0.000607738
0.000675417
0.000689873
0.000663086
0.000687373
0.000607738
0.000675417
0.000689875
0.000663087
0.000687374
0.000607739
0.000675419
0.000689877
0.000663089
0.000687376
0.000607741
0.000675421
0.000689877
0.000663089
0.000687376
0.000607741
0.000675421
0.000689875
0.000663087
0.000687374
0.000607739
0.000675419
0.000689873
0.000663086
0.000687373
0.000607738
0.000675417
0.000689873
0.000663086
0.000687372
0.000607738
0.000675417
0.000689872
0.000663085
0.000687371
0.000607737
0.000675415
0.000689906
0.000663125
0.000687404
0.000607779
0.00067545
0.000689915
0.000663135
0.000687412
0.000607789
0.000675458
0.000690221
0.000663494
0.000687719
0.000608166
0.00067578
0.000690271
0.000663551
0.000687769
0.000608225
0.000675832
0.000693041
0.000666775
0.000690615
0.000611735
0.000678921
0.000689686
0.000663378
0.0006876
0.000608991
0.00067951
0.000686919
0.000660198
0.00068477
0.000605555
0.000676505
0.000686869
0.000660142
0.00068472
0.000605497
0.000676454
0.000686554
0.000659776
0.000684405
0.000605117
0.000676127
0.000686545
0.000659767
0.000684397
0.000605107
0.000676119
0.000686509
0.000659725
0.000684361
0.000605064
0.000676083
0.00068651
0.000659725
0.000684362
0.000605064
0.000676085
0.00068651
0.000659725
0.000684363
0.000605064
0.000676085
0.000686512
0.000659727
0.000684365
0.000605066
0.000676087
0.000686514
0.000659729
0.000684366
0.000605067
0.000676089
0.000686514
0.000659729
0.000684366
0.000605067
0.000676089
0.000686512
0.000659727
0.000684365
0.000605066
0.000676087
0.00068651
0.000659725
0.000684363
0.000605064
0.000676085
0.00068651
0.000659725
0.000684362
0.000605064
0.000676085
0.000686509
0.000659725
0.000684361
0.000605064
0.000676083
0.000686545
0.000659767
0.000684397
0.000605107
0.000676119
0.000686554
0.000659776
0.000684405
0.000605117
0.000676127
0.000686869
0.000660142
0.00068472
0.000605497
0.000676454
0.000686919
0.000660198
0.00068477
0.000605555
0.000676505
0.000689686
0.000663378
0.0006876
0.000608991
0.00067951
0.00068832
0.000662026
0.000686595
0.000608143
0.000681687
0.000685575
0.000658883
0.000683793
0.000604761
0.000678745
0.000685525
0.000658827
0.000683743
0.000604704
0.000678693
0.000685203
0.000658455
0.000683421
0.000604319
0.000678361
0.000685194
0.000658445
0.000683413
0.000604309
0.000678353
0.000685156
0.000658402
0.000683376
0.000604265
0.000678316
0.000685157
0.000658403
0.000683377
0.000604265
0.000678317
0.000685157
0.000658402
0.000683377
0.000604265
0.000678318
0.000685159
0.000658404
0.000683379
0.000604266
0.000678319
0.00068516
0.000658406
0.000683381
0.000604268
0.000678321
0.00068516
0.000658406
0.000683381
0.000604268
0.000678321
0.000685159
0.000658404
0.000683379
0.000604266
0.000678319
0.000685157
0.000658402
0.000683377
0.000604265
0.000678318
0.000685157
0.000658403
0.000683377
0.000604265
0.000678317
0.000685156
0.000658402
0.000683376
0.000604265
0.000678316
0.000685194
0.000658445
0.000683413
0.000604309
0.000678353
0.000685203
0.000658455
0.000683421
0.000604319
0.000678361
0.000685525
0.000658827
0.000683743
0.000604704
0.000678693
0.000685575
0.000658883
0.000683793
0.000604761
0.000678745
0.00068832
0.000662026
0.000686595
0.000608143
0.000681687
0.00068718
0.00066114
0.000685856
0.000608145
0.000683882
0.000684487
0.000658058
0.00068311
0.000604828
0.000681007
0.000684438
0.000658003
0.000683061
0.000604772
0.000680956
0.00068411
0.000657627
0.000682735
0.000604384
0.00068062
0.000684102
0.000657617
0.000682726
0.000604374
0.000680611
0.000684063
0.000657573
0.000682688
0.000604328
0.000680573
0.000684063
0.000657573
0.000682689
0.000604329
0.000680574
0.000684063
0.000657573
0.00068269
0.000604328
0.000680575
0.000684065
0.000657575
0.000682691
0.00060433
0.000680576
0.000684066
0.000657576
0.000682693
0.000604332
0.000680578
0.000684066
0.000657576
0.000682693
0.000604332
0.000680578
0.000684065
0.000657575
0.000682691
0.00060433
0.000680576
0.000684063
0.000657573
0.00068269
0.000604328
0.000680575
0.000684063
0.000657573
0.000682689
0.000604329
0.000680574
0.000684063
0.000657573
0.000682688
0.000604328
0.000680573
0.000684102
0.000657617
0.000682726
0.000604374
0.000680611
0.00068411
0.000657627
0.000682735
0.000604384
0.00068062
0.000684438
0.000658003
0.000683061
0.000604772
0.000680956
0.000684487
0.000658058
0.00068311
0.000604828
0.000681007
0.00068718
0.00066114
0.000685856
0.000608145
0.000683882
0.000685797
0.000660072
0.000684871
0.000608168
0.000685333
0.000683161
0.000657059
0.000682188
0.000604923
0.000682509
0.000683112
0.000657004
0.00068214
0.000604868
0.000682458
0.000682781
0.000656626
0.00068181
0.000604477
0.000682118
0.000682772
0.000656616
0.000681802
0.000604467
0.000682109
0.000682732
0.000656571
0.000681763
0.000604421
0.000682069
0.000682733
0.000656571
0.000681764
0.000604421
0.00068207
0.000682732
0.00065657
0.000681763
0.00060442
0.00068207
0.000682734
0.000656572
0.000681765
0.000604422
0.000682072
0.000682735
0.000656574
0.000681767
0.000604424
0.000682074
0.000682735
0.000656574
0.000681767
0.000604424
0.000682074
0.000682734
0.000656572
0.000681765
0.000604422
0.000682072
0.000682732
0.00065657
0.000681763
0.00060442
0.00068207
0.000682733
0.000656571
0.000681764
0.000604421
0.00068207
0.000682732
0.000656571
0.000681763
0.000604421
0.000682069
0.000682772
0.000656616
0.000681802
0.000604467
0.000682109
0.000682781
0.000656626
0.00068181
0.000604477
0.000682118
0.000683112
0.000657004
0.00068214
0.000604868
0.000682458
0.000683161
0.000657059
0.000682188
0.000604923
0.000682509
0.000685797
0.000660072
0.000684871
0.000608168
0.000685333
0.000684314
0.000658878
0.000683768
0.000608041
0.000683184
0.000681729
0.00065593
0.000681143
0.000604865
0.000680405
0.000681681
0.000655877
0.000681095
0.000604811
0.000680356
0.000681347
0.000655497
0.000680763
0.000604418
0.000680012
0.000681338
0.000655486
0.000680754
0.000604408
0.000680003
0.000681297
0.00065544
0.000680714
0.000604361
0.000679962
0.000681297
0.00065544
0.000680715
0.000604361
0.000679963
0.000681297
0.000655439
0.000680714
0.00060436
0.000679963
0.000681298
0.000655441
0.000680716
0.000604362
0.000679965
0.0006813
0.000655443
0.000680718
0.000604364
0.000679966
0.0006813
0.000655443
0.000680718
0.000604364
0.000679966
0.000681298
0.000655441
0.000680716
0.000604362
0.000679965
0.000681297
0.000655439
0.000680714
0.00060436
0.000679963
0.000681297
0.00065544
0.000680715
0.000604361
0.000679963
0.000681297
0.00065544
0.000680714
0.000604361
0.000679962
0.000681338
0.000655486
0.000680754
0.000604408
0.000680003
0.000681347
0.000655497
0.000680763
0.000604418
0.000680012
0.000681681
0.000655877
0.000681095
0.000604811
0.000680356
0.000681729
0.00065593
0.000681143
0.000604865
0.000680405
0.000684314
0.000658878
0.000683768
0.000608041
0.000683184
0.000682854
0.000657686
0.000682672
0.000607765
0.000680019
0.000680318
0.000654801
0.000680102
0.000604656
0.000677285
0.000680271
0.000654748
0.000680055
0.000604604
0.000677236
0.000679933
0.000654365
0.000679719
0.000604209
0.000676889
0.000679924
0.000654355
0.00067971
0.000604199
0.00067688
0.000679882
0.000654308
0.000679669
0.000604151
0.000676838
0.000679882
0.000654308
0.00067967
0.000604151
0.000676839
0.000679882
0.000654307
0.000679669
0.00060415
0.000676839
0.000679883
0.000654309
0.000679671
0.000604152
0.00067684
0.000679885
0.00065431
0.000679673
0.000604153
0.000676842
0.000679885
0.00065431
0.000679673
0.000604153
0.000676842
0.000679883
0.000654309
0.000679671
0.000604152
0.00067684
0.000679882
0.000654307
0.000679669
0.00060415
0.000676839
0.000679882
0.000654308
0.00067967
0.000604151
0.000676839
0.000679882
0.000654308
0.000679669
0.000604151
0.000676838
0.000679924
0.000654355
0.00067971
0.000604199
0.00067688
0.000679933
0.000654365
0.000679719
0.000604209
0.000676889
0.000680271
0.000654748
0.000680055
0.000604604
0.000677236
0.000680318
0.000654801
0.000680102
0.000604656
0.000677285
0.000682854
0.000657686
0.000682672
0.000607765
0.000680019
0.000681433
0.000656528
0.000681604
0.000607376
0.000677143
0.000678946
0.000653703
0.000679086
0.000604333
0.000674454
0.000678899
0.000653652
0.00067904
0.000604282
0.000674406
0.000678558
0.000653267
0.000678702
0.000603886
0.000674057
0.000678549
0.000653256
0.000678693
0.000603875
0.000674048
0.000678505
0.000653208
0.000678651
0.000603827
0.000674005
0.000678506
0.000653208
0.000678651
0.000603827
0.000674006
0.000678505
0.000653207
0.000678651
0.000603826
0.000674005
0.000678506
0.000653209
0.000678652
0.000603827
0.000674007
0.000678508
0.00065321
0.000678654
0.000603829
0.000674009
0.000678508
0.00065321
0.000678654
0.000603829
0.000674009
0.000678506
0.000653209
0.000678652
0.000603827
0.000674007
0.000678505
0.000653207
0.000678651
0.000603826
0.000674005
0.000678506
0.000653208
0.000678651
0.000603827
0.000674006
0.000678505
0.000653208
0.000678651
0.000603827
0.000674005
0.000678549
0.000653256
0.000678693
0.000603875
0.000674048
0.000678558
0.000653267
0.000678702
0.000603886
0.000674057
0.000678899
0.000653652
0.00067904
0.000604282
0.000674406
0.000678946
0.000653703
0.000679086
0.000604333
0.000674454
0.000681433
0.000656528
0.000681604
0.000607376
0.000677143
0.000680034
0.000655392
0.000680549
0.000606888
0.000674549
0.000677595
0.000652626
0.000678083
0.00060391
0.000671904
0.000677549
0.000652576
0.000678038
0.000603859
0.000671858
0.000677205
0.000652189
0.000677698
0.000603462
0.000671506
0.000677196
0.000652179
0.000677689
0.000603452
0.000671497
0.000677151
0.000652129
0.000677645
0.000603402
0.000671454
0.000677152
0.00065213
0.000677646
0.000603403
0.000671454
0.000677151
0.000652128
0.000677645
0.000603401
0.000671453
0.000677152
0.00065213
0.000677646
0.000603403
0.000671455
0.000677154
0.000652131
0.000677648
0.000603404
0.000671457
0.000677154
0.000652131
0.000677648
0.000603404
0.000671457
0.000677152
0.00065213
0.000677646
0.000603403
0.000671455
0.000677151
0.000652128
0.000677645
0.000603401
0.000671453
0.000677152
0.00065213
0.000677646
0.000603403
0.000671454
0.000677151
0.000652129
0.000677645
0.000603402
0.000671454
0.000677196
0.000652179
0.000677689
0.000603452
0.000671497
0.000677205
0.000652189
0.000677698
0.000603462
0.000671506
0.000677549
0.000652576
0.000678038
0.000603859
0.000671858
0.000677595
0.000652626
0.000678083
0.00060391
0.000671904
0.000680034
0.000655392
0.000680549
0.000606888
0.000674549
0.00067865
0.000654269
0.0006795
0.000606301
0.000672013
0.000676258
0.000651561
0.000677086
0.000603387
0.000669413
0.000676213
0.000651512
0.000677042
0.000603338
0.000669367
0.000675867
0.000651123
0.000676699
0.00060294
0.000669014
0.000675857
0.000651113
0.00067669
0.00060293
0.000669005
0.000675812
0.000651063
0.000676646
0.000602879
0.00066896
0.000675812
0.000651063
0.000676646
0.00060288
0.000668961
0.000675811
0.000651061
0.000676645
0.000602878
0.00066896
0.000675812
0.000651063
0.000676646
0.000602879
0.000668962
0.000675814
0.000651064
0.000676648
0.000602881
0.000668963
0.000675814
0.000651064
0.000676648
0.000602881
0.000668963
0.000675812
0.000651063
0.000676646
0.000602879
0.000668962
0.000675811
0.000651061
0.000676645
0.000602878
0.00066896
0.000675812
0.000651063
0.000676646
0.00060288
0.000668961
0.000675812
0.000651063
0.000676646
0.000602879
0.00066896
0.000675857
0.000651113
0.00067669
0.00060293
0.000669005
0.000675867
0.000651123
0.000676699
0.00060294
0.000669014
0.000676213
0.000651512
0.000677042
0.000603338
0.000669367
0.000676258
0.000651561
0.000677086
0.000603387
0.000669413
0.00067865
0.000654269
0.0006795
0.000606301
0.000672013
0.000677281
0.000653157
0.000678458
0.000605616
0.000669464
0.000674935
0.000650506
0.000676095
0.000602765
0.000666908
0.000674891
0.000650458
0.000676052
0.000602717
0.000666863
0.000674542
0.000650068
0.000675707
0.000602318
0.000666509
0.000674533
0.000650058
0.000675698
0.000602308
0.0006665
0.000674486
0.000650007
0.000675653
0.000602257
0.000666455
0.000674486
0.000650007
0.000675653
0.000602258
0.000666455
0.000674485
0.000650005
0.000675652
0.000602256
0.000666454
0.000674486
0.000650007
0.000675653
0.000602257
0.000666455
0.000674488
0.000650008
0.000675655
0.000602259
0.000666457
0.000674488
0.000650008
0.000675655
0.000602259
0.000666457
0.000674486
0.000650007
0.000675653
0.000602257
0.000666455
0.000674485
0.000650005
0.000675652
0.000602256
0.000666454
0.000674486
0.000650007
0.000675653
0.000602258
0.000666455
0.000674486
0.000650007
0.000675653
0.000602257
0.000666455
0.000674533
0.000650058
0.000675698
0.000602308
0.0006665
0.000674542
0.000650068
0.000675707
0.000602318
0.000666509
0.000674891
0.000650458
0.000676052
0.000602717
0.000666863
0.000674935
0.000650506
0.000676095
0.000602765
0.000666908
0.000677281
0.000653157
0.000678458
0.000605616
0.000669464
0.000675927
0.000652057
0.000677426
0.000604835
0.000666922
0.000673626
0.000649462
0.000675113
0.000602046
0.000664408
0.000673583
0.000649415
0.00067507
0.000601998
0.000664364
0.000673232
0.000649024
0.000674724
0.0006016
0.00066401
0.000673223
0.000649014
0.000674714
0.00060159
0.000664
0.000673175
0.000648962
0.000674668
0.000601538
0.000663954
0.000673176
0.000648962
0.000674669
0.000601539
0.000663955
0.000673174
0.00064896
0.000674667
0.000601536
0.000663954
0.000673175
0.000648962
0.000674669
0.000601538
0.000663955
0.000673177
0.000648963
0.00067467
0.000601539
0.000663957
0.000673177
0.000648963
0.00067467
0.000601539
0.000663957
0.000673175
0.000648962
0.000674669
0.000601538
0.000663955
0.000673174
0.00064896
0.000674667
0.000601536
0.000663954
0.000673176
0.000648962
0.000674669
0.000601539
0.000663955
0.000673175
0.000648962
0.000674668
0.000601538
0.000663954
0.000673223
0.000649014
0.000674714
0.00060159
0.000664
0.000673232
0.000649024
0.000674724
0.0006016
0.00066401
0.000673583
0.000649415
0.00067507
0.000601998
0.000664364
0.000673626
0.000649462
0.000675113
0.000602046
0.000664408
0.000675927
0.000652057
0.000677426
0.000604835
0.000666922
0.000674589
0.000650971
0.000676405
0.000603959
0.000664407
0.000672332
0.00064843
0.00067414
0.000601231
0.000661934
0.00067229
0.000648383
0.000674098
0.000601185
0.000661891
0.000671937
0.000647992
0.00067375
0.000600786
0.000661536
0.000671928
0.000647982
0.000673741
0.000600776
0.000661527
0.00067188
0.000647929
0.000673694
0.000600724
0.00066148
0.00067188
0.000647929
0.000673695
0.000600724
0.00066148
0.000671878
0.000647927
0.000673693
0.000600722
0.000661479
0.000671879
0.000647929
0.000673694
0.000600723
0.00066148
0.000671881
0.00064793
0.000673696
0.000600725
0.000661482
0.000671881
0.00064793
0.000673696
0.000600725
0.000661482
0.000671879
0.000647929
0.000673694
0.000600723
0.00066148
0.000671878
0.000647927
0.000673693
0.000600722
0.000661479
0.00067188
0.000647929
0.000673695
0.000600724
0.00066148
0.00067188
0.000647929
0.000673694
0.000600724
0.00066148
0.000671928
0.000647982
0.000673741
0.000600776
0.000661527
0.000671937
0.000647992
0.00067375
0.000600786
0.000661536
0.00067229
0.000648383
0.000674098
0.000601185
0.000661891
0.000672332
0.00064843
0.00067414
0.000601231
0.000661934
0.000674589
0.000650971
0.000676405
0.000603959
0.000664407
0.000673266
0.000649896
0.000675396
0.00060299
0.000661792
0.000671053
0.000647409
0.000673178
0.000600322
0.00065936
0.000671011
0.000647364
0.000673137
0.000600277
0.000659318
0.000670657
0.000646972
0.000672788
0.000599879
0.000658963
0.000670647
0.000646962
0.000672779
0.000599869
0.000658954
0.000670598
0.000646908
0.000672731
0.000599816
0.000658907
0.000670599
0.000646908
0.000672732
0.000599816
0.000658907
0.000670596
0.000646906
0.00067273
0.000599814
0.000658906
0.000670598
0.000646907
0.000672731
0.000599815
0.000658907
0.000670599
0.000646909
0.000672733
0.000599817
0.000658909
0.000670599
0.000646909
0.000672733
0.000599817
0.000658909
0.000670598
0.000646907
0.000672731
0.000599815
0.000658907
0.000670596
0.000646906
0.00067273
0.000599814
0.000658906
0.000670599
0.000646908
0.000672732
0.000599816
0.000658907
0.000670598
0.000646908
0.000672731
0.000599816
0.000658907
0.000670647
0.000646962
0.000672779
0.000599869
0.000658954
0.000670657
0.000646972
0.000672788
0.000599879
0.000658963
0.000671011
0.000647364
0.000673137
0.000600277
0.000659318
0.000671053
0.000647409
0.000673178
0.000600322
0.00065936
0.000673266
0.000649896
0.000675396
0.00060299
0.000661792
-1.75332e-05
2.07191e-05
4.58434e-06
8.98669e-07
2.81841e-07
1.82512e-07
1.65117e-07
1.62291e-07
1.61729e-07
1.61636e-07
1.61611e-07
1.61599e-07
1.61529e-07
1.61439e-07
1.60665e-07
1.60035e-07
1.53762e-07
1.50988e-07
1.12219e-07
1.0803e-07
-1.7814e-05
2.08016e-05
4.65966e-06
9.12075e-07
2.84335e-07
1.82919e-07
1.65173e-07
1.62284e-07
1.6171e-07
1.61615e-07
1.61589e-07
1.61577e-07
1.61506e-07
1.61414e-07
1.60629e-07
1.59992e-07
1.53654e-07
1.50874e-07
1.1193e-07
1.07827e-07
-1.78187e-05
2.08018e-05
4.66065e-06
9.12304e-07
2.84392e-07
1.8293e-07
1.65176e-07
1.62284e-07
1.6171e-07
1.61615e-07
1.61589e-07
1.61577e-07
1.61506e-07
1.61414e-07
1.60629e-07
1.59992e-07
1.53653e-07
1.50872e-07
1.11927e-07
1.07825e-07
-1.78403e-05
2.07993e-05
4.66307e-06
9.12878e-07
2.84546e-07
1.82958e-07
1.6518e-07
1.62284e-07
1.61709e-07
1.61613e-07
1.61588e-07
1.61576e-07
1.61504e-07
1.61413e-07
1.60627e-07
1.59989e-07
1.53647e-07
1.50867e-07
1.11916e-07
1.0782e-07
-1.7841e-05
2.07992e-05
4.66314e-06
9.12897e-07
2.84552e-07
1.82959e-07
1.65181e-07
1.62284e-07
1.61709e-07
1.61613e-07
1.61587e-07
1.61576e-07
1.61504e-07
1.61413e-07
1.60627e-07
1.59989e-07
1.53647e-07
1.50866e-07
1.11916e-07
1.0782e-07
-1.7843e-05
2.07987e-05
4.66321e-06
9.12921e-07
2.8456e-07
1.82961e-07
1.65181e-07
1.62284e-07
1.61709e-07
1.61613e-07
1.61587e-07
1.61576e-07
1.61504e-07
1.61413e-07
1.60626e-07
1.59989e-07
1.53647e-07
1.50866e-07
1.11916e-07
1.07819e-07
-1.7843e-05
2.07987e-05
4.66324e-06
9.12925e-07
2.84561e-07
1.82961e-07
1.65181e-07
1.62284e-07
1.61709e-07
1.61613e-07
1.61587e-07
1.61576e-07
1.61504e-07
1.61413e-07
1.60626e-07
1.59989e-07
1.53647e-07
1.50866e-07
1.11916e-07
1.07819e-07
-1.78431e-05
2.07988e-05
4.66327e-06
9.1293e-07
2.84562e-07
1.82961e-07
1.65181e-07
1.62284e-07
1.61709e-07
1.61613e-07
1.61587e-07
1.61576e-07
1.61504e-07
1.61413e-07
1.60626e-07
1.59989e-07
1.53647e-07
1.50866e-07
1.11916e-07
1.07819e-07
-1.78431e-05
2.07988e-05
4.66329e-06
9.12933e-07
2.84563e-07
1.82961e-07
1.65181e-07
1.62284e-07
1.61709e-07
1.61613e-07
1.61587e-07
1.61576e-07
1.61504e-07
1.61413e-07
1.60626e-07
1.59989e-07
1.53647e-07
1.50866e-07
1.11916e-07
1.07819e-07
-1.78431e-05
2.07989e-05
4.6633e-06
9.12934e-07
2.84563e-07
1.82961e-07
1.65181e-07
1.62284e-07
1.61709e-07
1.61613e-07
1.61587e-07
1.61576e-07
1.61504e-07
1.61413e-07
1.60626e-07
1.59989e-07
1.53647e-07
1.50866e-07
1.11916e-07
1.07819e-07
-1.78431e-05
2.07989e-05
4.6633e-06
9.12934e-07
2.84563e-07
1.82961e-07
1.65181e-07
1.62284e-07
1.61709e-07
1.61613e-07
1.61587e-07
1.61576e-07
1.61504e-07
1.61413e-07
1.60626e-07
1.59989e-07
1.53647e-07
1.50866e-07
1.11916e-07
1.07819e-07
-1.78431e-05
2.07988e-05
4.66329e-06
9.12933e-07
2.84563e-07
1.82961e-07
1.65181e-07
1.62284e-07
1.61709e-07
1.61613e-07
1.61587e-07
1.61576e-07
1.61504e-07
1.61413e-07
1.60626e-07
1.59989e-07
1.53647e-07
1.50866e-07
1.11916e-07
1.07819e-07
-1.78431e-05
2.07988e-05
4.66327e-06
9.1293e-07
2.84562e-07
1.82961e-07
1.65181e-07
1.62284e-07
1.61709e-07
1.61613e-07
1.61587e-07
1.61576e-07
1.61504e-07
1.61413e-07
1.60626e-07
1.59989e-07
1.53647e-07
1.50866e-07
1.11916e-07
1.07819e-07
-1.7843e-05
2.07987e-05
4.66324e-06
9.12925e-07
2.84561e-07
1.82961e-07
1.65181e-07
1.62284e-07
1.61709e-07
1.61613e-07
1.61587e-07
1.61576e-07
1.61504e-07
1.61413e-07
1.60626e-07
1.59989e-07
1.53647e-07
1.50866e-07
1.11916e-07
1.07819e-07
-1.7843e-05
2.07987e-05
4.66321e-06
9.12921e-07
2.8456e-07
1.82961e-07
1.65181e-07
1.62284e-07
1.61709e-07
1.61613e-07
1.61587e-07
1.61576e-07
1.61504e-07
1.61413e-07
1.60626e-07
1.59989e-07
1.53647e-07
1.50866e-07
1.11916e-07
1.07819e-07
-1.7841e-05
2.07992e-05
4.66314e-06
9.12897e-07
2.84552e-07
1.82959e-07
1.65181e-07
1.62284e-07
1.61709e-07
1.61613e-07
1.61587e-07
1.61576e-07
1.61504e-07
1.61413e-07
1.60627e-07
1.59989e-07
1.53647e-07
1.50866e-07
1.11916e-07
1.0782e-07
-1.78403e-05
2.07993e-05
4.66307e-06
9.12878e-07
2.84546e-07
1.82958e-07
1.6518e-07
1.62284e-07
1.61709e-07
1.61613e-07
1.61588e-07
1.61576e-07
1.61504e-07
1.61413e-07
1.60627e-07
1.59989e-07
1.53647e-07
1.50867e-07
1.11916e-07
1.0782e-07
-1.78187e-05
2.08018e-05
4.66065e-06
9.12304e-07
2.84392e-07
1.8293e-07
1.65176e-07
1.62284e-07
1.6171e-07
1.61615e-07
1.61589e-07
1.61577e-07
1.61506e-07
1.61414e-07
1.60629e-07
1.59992e-07
1.53653e-07
1.50872e-07
1.11927e-07
1.07825e-07
-1.7814e-05
2.08016e-05
4.65966e-06
9.12075e-07
2.84335e-07
1.82919e-07
1.65173e-07
1.62284e-07
1.6171e-07
1.61615e-07
1.61589e-07
1.61577e-07
1.61506e-07
1.61414e-07
1.60629e-07
1.59992e-07
1.53654e-07
1.50874e-07
1.1193e-07
1.07827e-07
-1.75332e-05
2.07191e-05
4.58434e-06
8.98669e-07
2.81841e-07
1.82512e-07
1.65117e-07
1.62291e-07
1.61729e-07
1.61636e-07
1.61611e-07
1.61599e-07
1.61529e-07
1.61439e-07
1.60665e-07
1.60035e-07
1.53762e-07
1.50988e-07
1.12219e-07
1.0803e-07
-1.73982e-05
2.09392e-05
4.62597e-06
9.05873e-07
2.83083e-07
1.82742e-07
1.65137e-07
1.62389e-07
1.61818e-07
1.61724e-07
1.61699e-07
1.61687e-07
1.61616e-07
1.61524e-07
1.60727e-07
1.60032e-07
1.53683e-07
1.50885e-07
1.11629e-07
1.07411e-07
-1.76691e-05
2.10234e-05
4.70204e-06
9.1941e-07
2.85605e-07
1.83153e-07
1.65194e-07
1.62382e-07
1.618e-07
1.61703e-07
1.61677e-07
1.61665e-07
1.61593e-07
1.615e-07
1.6069e-07
1.59989e-07
1.53575e-07
1.5077e-07
1.11335e-07
1.07203e-07
-1.76737e-05
2.10236e-05
4.70305e-06
9.19641e-07
2.85662e-07
1.83164e-07
1.65196e-07
1.62382e-07
1.618e-07
1.61703e-07
1.61677e-07
1.61665e-07
1.61592e-07
1.615e-07
1.6069e-07
1.59988e-07
1.53573e-07
1.50768e-07
1.11332e-07
1.07202e-07
-1.76947e-05
2.10211e-05
4.70549e-06
9.20221e-07
2.85818e-07
1.83192e-07
1.65201e-07
1.62382e-07
1.61799e-07