/*--------------------------------*- C++ -*----------------------------------*\
  =========                 |
  \\      /  F ield         | OpenFOAM: The Open Source CFD Toolbox
   \\    /   O peration     | Website:  https://openfoam.org
    \\  /    A nd           | Version:  8
     \\/     M anipulation  |
\*---------------------------------------------------------------------------*/
FoamFile
{
    version     2.0;
    format      ascii;
    class       volScalarField;
    location    "4.2";
    object      H2;
}
// * * * * * * * * * * * * * * * * * * * * * * * * * * * * * * * * * * * * * //

dimensions      [0 1 -1 0 0 0 0];

internalField   nonuniform List<scalar> 
180000
(
1.66442e-25
5.40503e-21
1.29825e-16
2.4724e-12
3.85669e-08
2.11277e-25
6.37822e-21
1.48006e-16
2.75632e-12
4.22633e-08
2.11799e-25
6.38958e-21
1.48204e-16
2.75897e-12
4.22889e-08
2.131e-25
6.4186e-21
1.48716e-16
2.76597e-12
4.23574e-08
2.12829e-25
6.4125e-21
1.48589e-16
2.7637e-12
4.23215e-08
2.11991e-25
6.39389e-21
1.48214e-16
2.75713e-12
4.2221e-08
2.11832e-25
6.3903e-21
1.4814e-16
2.75582e-12
4.22004e-08
2.11445e-25
6.38161e-21
1.47963e-16
2.75273e-12
4.2153e-08
2.11385e-25
6.38023e-21
1.47935e-16
2.75222e-12
4.21449e-08
2.11283e-25
6.37792e-21
1.47888e-16
2.75138e-12
4.21319e-08
2.11283e-25
6.37792e-21
1.47888e-16
2.75138e-12
4.21319e-08
2.11385e-25
6.38023e-21
1.47935e-16
2.75222e-12
4.21449e-08
2.11445e-25
6.38161e-21
1.47963e-16
2.75273e-12
4.2153e-08
2.11832e-25
6.3903e-21
1.4814e-16
2.75582e-12
4.22004e-08
2.11991e-25
6.39389e-21
1.48214e-16
2.75713e-12
4.2221e-08
2.12829e-25
6.4125e-21
1.48589e-16
2.7637e-12
4.23215e-08
2.131e-25
6.4186e-21
1.48716e-16
2.76597e-12
4.23574e-08
2.11799e-25
6.38958e-21
1.48204e-16
2.75897e-12
4.22889e-08
2.11277e-25
6.37822e-21
1.48006e-16
2.75632e-12
4.22634e-08
1.66442e-25
5.40503e-21
1.29825e-16
2.4724e-12
3.85669e-08
1.66439e-25
5.40485e-21
1.29817e-16
2.47432e-12
4.21187e-08
2.11273e-25
6.378e-21
1.47997e-16
2.7583e-12
4.59806e-08
2.11796e-25
6.38936e-21
1.48195e-16
2.76095e-12
4.60044e-08
2.13096e-25
6.41838e-21
1.48706e-16
2.76794e-12
4.60646e-08
2.12826e-25
6.41228e-21
1.4858e-16
2.76567e-12
4.60249e-08
2.11987e-25
6.39367e-21
1.48204e-16
2.75909e-12
4.59128e-08
2.11829e-25
6.39008e-21
1.48131e-16
2.75777e-12
4.58901e-08
2.11442e-25
6.38139e-21
1.47954e-16
2.75468e-12
4.58373e-08
2.11381e-25
6.38001e-21
1.47926e-16
2.75417e-12
4.58282e-08
2.11279e-25
6.3777e-21
1.47878e-16
2.75333e-12
4.58138e-08
2.11279e-25
6.3777e-21
1.47878e-16
2.75333e-12
4.58138e-08
2.11381e-25
6.38001e-21
1.47926e-16
2.75417e-12
4.58282e-08
2.11442e-25
6.38139e-21
1.47954e-16
2.75468e-12
4.58373e-08
2.11829e-25
6.39008e-21
1.48131e-16
2.75777e-12
4.58901e-08
2.11987e-25
6.39367e-21
1.48204e-16
2.75909e-12
4.59128e-08
2.12826e-25
6.41228e-21
1.4858e-16
2.76567e-12
4.60249e-08
2.13096e-25
6.41838e-21
1.48706e-16
2.76794e-12
4.60646e-08
2.11796e-25
6.38936e-21
1.48195e-16
2.76095e-12
4.60044e-08
2.11273e-25
6.378e-21
1.47997e-16
2.7583e-12
4.59806e-08
1.66439e-25
5.40485e-21
1.29817e-16
2.47432e-12
4.21187e-08
1.66437e-25
5.40452e-21
1.2981e-16
2.48644e-12
5.99587e-08
2.1127e-25
6.37761e-21
1.47988e-16
2.7707e-12
6.43785e-08
2.11793e-25
6.38897e-21
1.48186e-16
2.77334e-12
6.43952e-08
2.13093e-25
6.41799e-21
1.48697e-16
2.78028e-12
6.44264e-08
2.12823e-25
6.41189e-21
1.48571e-16
2.77799e-12
6.43729e-08
2.11984e-25
6.39328e-21
1.48195e-16
2.77137e-12
6.42205e-08
2.11826e-25
6.38969e-21
1.48122e-16
2.77005e-12
6.41897e-08
2.11439e-25
6.381e-21
1.47945e-16
2.76694e-12
6.41178e-08
2.11378e-25
6.37962e-21
1.47917e-16
2.76642e-12
6.41054e-08
2.11276e-25
6.37731e-21
1.4787e-16
2.76558e-12
6.40854e-08
2.11276e-25
6.37731e-21
1.4787e-16
2.76558e-12
6.40854e-08
2.11378e-25
6.37962e-21
1.47917e-16
2.76642e-12
6.41054e-08
2.11439e-25
6.381e-21
1.47945e-16
2.76694e-12
6.41178e-08
2.11826e-25
6.38969e-21
1.48122e-16
2.77005e-12
6.41897e-08
2.11984e-25
6.39328e-21
1.48195e-16
2.77137e-12
6.42205e-08
2.12823e-25
6.41189e-21
1.48571e-16
2.77799e-12
6.43729e-08
2.13093e-25
6.41799e-21
1.48697e-16
2.78028e-12
6.44264e-08
2.11793e-25
6.38897e-21
1.48186e-16
2.77334e-12
6.43952e-08
2.1127e-25
6.37761e-21
1.47988e-16
2.7707e-12
6.43785e-08
1.66437e-25
5.40452e-21
1.2981e-16
2.48644e-12
5.99587e-08
1.66434e-25
5.40398e-21
1.2982e-16
2.52371e-12
1.03766e-07
2.11266e-25
6.37695e-21
1.47996e-16
2.80852e-12
1.09027e-07
2.11789e-25
6.38833e-21
1.48194e-16
2.81113e-12
1.0903e-07
2.1309e-25
6.41734e-21
1.48705e-16
2.81794e-12
1.09017e-07
2.12819e-25
6.41124e-21
1.48579e-16
2.81563e-12
1.0894e-07
2.11981e-25
6.39263e-21
1.48203e-16
2.8089e-12
1.08723e-07
2.11822e-25
6.38905e-21
1.48129e-16
2.80756e-12
1.08679e-07
2.11435e-25
6.38036e-21
1.47953e-16
2.8044e-12
1.08576e-07
2.11375e-25
6.37898e-21
1.47925e-16
2.80387e-12
1.08558e-07
2.11273e-25
6.37667e-21
1.47877e-16
2.80302e-12
1.08529e-07
2.11273e-25
6.37667e-21
1.47877e-16
2.80302e-12
1.08529e-07
2.11375e-25
6.37898e-21
1.47925e-16
2.80387e-12
1.08558e-07
2.11435e-25
6.38036e-21
1.47953e-16
2.8044e-12
1.08576e-07
2.11822e-25
6.38905e-21
1.48129e-16
2.80756e-12
1.08679e-07
2.11981e-25
6.39263e-21
1.48203e-16
2.8089e-12
1.08723e-07
2.12819e-25
6.41124e-21
1.48579e-16
2.81563e-12
1.0894e-07
2.1309e-25
6.41734e-21
1.48705e-16
2.81794e-12
1.09017e-07
2.11789e-25
6.38833e-21
1.48194e-16
2.81113e-12
1.0903e-07
2.11266e-25
6.37695e-21
1.47996e-16
2.80852e-12
1.09027e-07
1.66434e-25
5.40398e-21
1.2982e-16
2.52371e-12
1.03766e-07
1.6643e-25
5.40326e-21
1.29875e-16
2.60412e-12
1.78619e-07
2.11262e-25
6.37608e-21
1.48047e-16
2.88958e-12
1.84682e-07
2.11785e-25
6.38746e-21
1.48245e-16
2.89214e-12
1.84665e-07
2.13086e-25
6.41647e-21
1.48756e-16
2.8987e-12
1.8459e-07
2.12816e-25
6.41037e-21
1.4863e-16
2.89631e-12
1.84485e-07
2.11977e-25
6.39177e-21
1.48254e-16
2.8894e-12
1.84189e-07
2.11819e-25
6.38818e-21
1.4818e-16
2.88802e-12
1.84129e-07
2.11431e-25
6.3795e-21
1.48003e-16
2.88478e-12
1.83987e-07
2.11371e-25
6.37812e-21
1.47975e-16
2.88424e-12
1.83962e-07
2.11269e-25
6.37581e-21
1.47928e-16
2.88336e-12
1.83922e-07
2.11269e-25
6.37581e-21
1.47928e-16
2.88336e-12
1.83922e-07
2.11371e-25
6.37812e-21
1.47975e-16
2.88424e-12
1.83962e-07
2.11431e-25
6.3795e-21
1.48003e-16
2.88478e-12
1.83987e-07
2.11819e-25
6.38818e-21
1.4818e-16
2.88802e-12
1.84129e-07
2.11977e-25
6.39177e-21
1.48254e-16
2.8894e-12
1.84189e-07
2.12816e-25
6.41037e-21
1.4863e-16
2.89631e-12
1.84485e-07
2.13086e-25
6.41647e-21
1.48756e-16
2.8987e-12
1.8459e-07
2.11785e-25
6.38746e-21
1.48245e-16
2.89214e-12
1.84665e-07
2.11262e-25
6.37608e-21
1.48047e-16
2.88958e-12
1.84682e-07
1.6643e-25
5.40326e-21
1.29875e-16
2.60412e-12
1.78619e-07
1.66427e-25
5.40243e-21
1.30012e-16
2.74627e-12
2.85484e-07
2.11256e-25
6.37506e-21
1.48179e-16
3.03219e-12
2.921e-07
2.11781e-25
6.38646e-21
1.48377e-16
3.03465e-12
2.92053e-07
2.13082e-25
6.41546e-21
1.48887e-16
3.04076e-12
2.91875e-07
2.12811e-25
6.40937e-21
1.48761e-16
3.03828e-12
2.91737e-07
2.11972e-25
6.39077e-21
1.48384e-16
3.03107e-12
2.91346e-07
2.11814e-25
6.38718e-21
1.48311e-16
3.02963e-12
2.91265e-07
2.11427e-25
6.37849e-21
1.48134e-16
3.02624e-12
2.91078e-07
2.11367e-25
6.37711e-21
1.48105e-16
3.02568e-12
2.91044e-07
2.11265e-25
6.37481e-21
1.48058e-16
3.02475e-12
2.90991e-07
2.11265e-25
6.37481e-21
1.48058e-16
3.02475e-12
2.90991e-07
2.11367e-25
6.37711e-21
1.48105e-16
3.02568e-12
2.91044e-07
2.11427e-25
6.37849e-21
1.48134e-16
3.02624e-12
2.91078e-07
2.11814e-25
6.38718e-21
1.48311e-16
3.02963e-12
2.91265e-07
2.11972e-25
6.39077e-21
1.48384e-16
3.03107e-12
2.91346e-07
2.12811e-25
6.40937e-21
1.48761e-16
3.03828e-12
2.91737e-07
2.13082e-25
6.41546e-21
1.48887e-16
3.04076e-12
2.91875e-07
2.11781e-25
6.38646e-21
1.48377e-16
3.03465e-12
2.92053e-07
2.11256e-25
6.37506e-21
1.48179e-16
3.03219e-12
2.921e-07
1.66427e-25
5.40243e-21
1.30012e-16
2.74627e-12
2.85484e-07
1.66422e-25
5.40158e-21
1.30283e-16
2.9691e-12
4.24898e-07
2.1125e-25
6.37399e-21
1.48443e-16
3.25491e-12
4.31708e-07
2.11776e-25
6.3854e-21
1.48641e-16
3.25722e-12
4.31618e-07
2.13076e-25
6.4144e-21
1.49149e-16
3.26261e-12
4.31264e-07
2.12806e-25
6.40831e-21
1.49022e-16
3.25998e-12
4.31083e-07
2.11967e-25
6.38971e-21
1.48645e-16
3.25232e-12
4.30569e-07
2.11809e-25
6.38612e-21
1.48571e-16
3.2508e-12
4.30464e-07
2.11422e-25
6.37744e-21
1.48394e-16
3.2472e-12
4.30218e-07
2.11362e-25
6.37606e-21
1.48366e-16
3.2466e-12
4.30173e-07
2.1126e-25
6.37376e-21
1.48318e-16
3.24561e-12
4.30103e-07
2.1126e-25
6.37376e-21
1.48318e-16
3.24561e-12
4.30103e-07
2.11362e-25
6.37606e-21
1.48366e-16
3.2466e-12
4.30173e-07
2.11422e-25
6.37744e-21
1.48394e-16
3.2472e-12
4.30218e-07
2.11809e-25
6.38612e-21
1.48571e-16
3.2508e-12
4.30464e-07
2.11967e-25
6.38971e-21
1.48645e-16
3.25232e-12
4.30569e-07
2.12806e-25
6.40831e-21
1.49022e-16
3.25998e-12
4.31083e-07
2.13076e-25
6.4144e-21
1.49149e-16
3.26261e-12
4.31264e-07
2.11776e-25
6.3854e-21
1.48641e-16
3.25722e-12
4.31618e-07
2.1125e-25
6.37399e-21
1.48443e-16
3.25491e-12
4.31708e-07
1.66422e-25
5.40158e-21
1.30283e-16
2.9691e-12
4.24898e-07
1.66418e-25
5.40086e-21
1.30751e-16
3.29205e-12
5.97687e-07
2.11244e-25
6.37299e-21
1.489e-16
3.57675e-12
6.04216e-07
2.1177e-25
6.38442e-21
1.49097e-16
3.57884e-12
6.04065e-07
2.13071e-25
6.41341e-21
1.49603e-16
3.58313e-12
6.03433e-07
2.128e-25
6.40732e-21
1.49476e-16
3.58031e-12
6.032e-07
2.11962e-25
6.38873e-21
1.49097e-16
3.572e-12
6.02523e-07
2.11804e-25
6.38514e-21
1.49023e-16
3.57036e-12
6.02387e-07
2.11416e-25
6.37646e-21
1.48845e-16
3.56646e-12
6.02064e-07
2.11356e-25
6.37508e-21
1.48816e-16
3.56581e-12
6.02007e-07
2.11254e-25
6.37278e-21
1.48769e-16
3.56474e-12
6.01914e-07
2.11254e-25
6.37278e-21
1.48769e-16
3.56474e-12
6.01914e-07
2.11356e-25
6.37508e-21
1.48816e-16
3.56581e-12
6.02007e-07
2.11416e-25
6.37646e-21
1.48845e-16
3.56646e-12
6.02064e-07
2.11804e-25
6.38514e-21
1.49023e-16
3.57036e-12
6.02387e-07
2.11962e-25
6.38873e-21
1.49097e-16
3.572e-12
6.02523e-07
2.128e-25
6.40732e-21
1.49476e-16
3.58031e-12
6.032e-07
2.13071e-25
6.41341e-21
1.49603e-16
3.58313e-12
6.03433e-07
2.1177e-25
6.38442e-21
1.49097e-16
3.57884e-12
6.04065e-07
2.11244e-25
6.37299e-21
1.489e-16
3.57675e-12
6.04216e-07
1.66418e-25
5.40086e-21
1.30751e-16
3.29205e-12
5.97687e-07
1.66413e-25
5.40042e-21
1.31491e-16
3.73493e-12
8.04382e-07
2.11237e-25
6.37224e-21
1.49624e-16
4.01699e-12
8.10002e-07
2.11764e-25
6.38369e-21
1.49821e-16
4.01877e-12
8.0977e-07
2.13065e-25
6.41267e-21
1.50322e-16
4.02147e-12
8.08731e-07
2.12794e-25
6.40658e-21
1.50194e-16
4.01838e-12
8.08433e-07
2.11956e-25
6.38799e-21
1.49813e-16
4.00918e-12
8.07542e-07
2.11798e-25
6.38441e-21
1.49739e-16
4.00739e-12
8.07369e-07
2.1141e-25
6.37573e-21
1.4956e-16
4.00308e-12
8.06947e-07
2.1135e-25
6.37435e-21
1.49531e-16
4.00236e-12
8.06873e-07
2.11248e-25
6.37205e-21
1.49483e-16
4.00117e-12
8.06751e-07
2.11248e-25
6.37205e-21
1.49483e-16
4.00117e-12
8.06751e-07
2.1135e-25
6.37435e-21
1.49531e-16
4.00236e-12
8.06873e-07
2.1141e-25
6.37573e-21
1.4956e-16
4.00308e-12
8.06947e-07
2.11798e-25
6.38441e-21
1.49739e-16
4.00739e-12
8.07369e-07
2.11956e-25
6.38799e-21
1.49813e-16
4.00918e-12
8.07542e-07
2.12794e-25
6.40658e-21
1.50194e-16
4.01838e-12
8.08433e-07
2.13065e-25
6.41267e-21
1.50322e-16
4.02147e-12
8.08731e-07
2.11764e-25
6.38369e-21
1.49821e-16
4.01877e-12
8.0977e-07
2.11237e-25
6.37224e-21
1.49624e-16
4.01699e-12
8.10002e-07
1.66413e-25
5.40042e-21
1.31491e-16
3.73493e-12
8.04382e-07
1.66408e-25
5.4005e-21
1.32592e-16
4.31719e-12
1.04433e-06
2.11229e-25
6.37195e-21
1.50701e-16
4.59442e-12
1.04822e-06
2.11758e-25
6.38343e-21
1.50898e-16
4.59577e-12
1.04788e-06
2.13059e-25
6.41239e-21
1.51391e-16
4.59627e-12
1.04628e-06
2.12788e-25
6.4063e-21
1.51263e-16
4.59282e-12
1.04591e-06
2.1195e-25
6.38772e-21
1.50878e-16
4.58245e-12
1.04474e-06
2.11792e-25
6.38413e-21
1.50803e-16
4.58045e-12
1.04452e-06
2.11404e-25
6.37545e-21
1.50623e-16
4.57559e-12
1.04397e-06
2.11344e-25
6.37407e-21
1.50593e-16
4.57479e-12
1.04388e-06
2.11242e-25
6.37177e-21
1.50545e-16
4.57344e-12
1.04372e-06
2.11242e-25
6.37177e-21
1.50545e-16
4.57344e-12
1.04372e-06
2.11344e-25
6.37407e-21
1.50593e-16
4.57479e-12
1.04388e-06
2.11404e-25
6.37545e-21
1.50623e-16
4.57559e-12
1.04397e-06
2.11792e-25
6.38413e-21
1.50803e-16
4.58045e-12
1.04452e-06
2.1195e-25
6.38772e-21
1.50878e-16
4.58245e-12
1.04474e-06
2.12788e-25
6.4063e-21
1.51263e-16
4.59282e-12
1.04591e-06
2.13059e-25
6.41239e-21
1.51391e-16
4.59627e-12
1.04628e-06
2.11758e-25
6.38343e-21
1.50898e-16
4.59577e-12
1.04788e-06
2.11229e-25
6.37195e-21
1.50701e-16
4.59442e-12
1.04822e-06
1.66408e-25
5.4005e-21
1.32592e-16
4.31719e-12
1.04433e-06
1.66404e-25
5.40133e-21
1.34052e-16
4.89786e-12
1.04183e-06
2.11222e-25
6.37236e-21
1.52131e-16
5.17024e-12
1.04576e-06
2.11753e-25
6.38386e-21
1.52326e-16
5.17118e-12
1.04543e-06
2.13053e-25
6.4128e-21
1.5281e-16
5.16949e-12
1.04385e-06
2.12783e-25
6.40671e-21
1.5268e-16
5.16568e-12
1.04348e-06
2.11944e-25
6.38812e-21
1.52291e-16
5.15415e-12
1.04233e-06
2.11786e-25
6.38453e-21
1.52215e-16
5.15195e-12
1.04211e-06
2.11399e-25
6.37585e-21
1.52033e-16
5.14655e-12
1.04157e-06
2.11338e-25
6.37447e-21
1.52003e-16
5.14566e-12
1.04147e-06
2.11237e-25
6.37217e-21
1.51954e-16
5.14415e-12
1.04132e-06
2.11237e-25
6.37217e-21
1.51954e-16
5.14415e-12
1.04132e-06
2.11338e-25
6.37447e-21
1.52003e-16
5.14566e-12
1.04147e-06
2.11399e-25
6.37585e-21
1.52033e-16
5.14655e-12
1.04157e-06
2.11786e-25
6.38453e-21
1.52215e-16
5.15195e-12
1.04211e-06
2.11944e-25
6.38812e-21
1.52291e-16
5.15415e-12
1.04233e-06
2.12783e-25
6.40671e-21
1.5268e-16
5.16568e-12
1.04348e-06
2.13053e-25
6.4128e-21
1.5281e-16
5.16949e-12
1.04385e-06
2.11753e-25
6.38386e-21
1.52326e-16
5.17118e-12
1.04543e-06
2.11222e-25
6.37236e-21
1.52131e-16
5.17024e-12
1.04576e-06
1.66404e-25
5.40133e-21
1.34052e-16
4.89786e-12
1.04183e-06
1.66401e-25
5.40313e-21
1.35872e-16
5.47692e-12
1.03941e-06
2.11216e-25
6.37368e-21
1.53911e-16
5.74445e-12
1.04338e-06
2.11748e-25
6.3852e-21
1.54105e-16
5.74497e-12
1.04305e-06
2.13048e-25
6.41411e-21
1.54577e-16
5.74111e-12
1.0415e-06
2.12778e-25
6.40801e-21
1.54446e-16
5.73696e-12
1.04113e-06
2.1194e-25
6.38942e-21
1.54051e-16
5.72427e-12
1.03999e-06
2.11781e-25
6.38583e-21
1.53974e-16
5.72187e-12
1.03977e-06
2.11394e-25
6.37715e-21
1.53789e-16
5.71593e-12
1.03923e-06
2.11334e-25
6.37577e-21
1.53759e-16
5.71495e-12
1.03914e-06
2.11232e-25
6.37347e-21
1.53709e-16
5.71329e-12
1.03899e-06
2.11232e-25
6.37347e-21
1.53709e-16
5.71329e-12
1.03899e-06
2.11334e-25
6.37577e-21
1.53759e-16
5.71495e-12
1.03914e-06
2.11394e-25
6.37715e-21
1.53789e-16
5.71593e-12
1.03923e-06
2.11781e-25
6.38583e-21
1.53974e-16
5.72187e-12
1.03977e-06
2.1194e-25
6.38942e-21
1.54051e-16
5.72427e-12
1.03999e-06
2.12778e-25
6.40801e-21
1.54446e-16
5.73696e-12
1.04113e-06
2.13048e-25
6.41411e-21
1.54577e-16
5.74111e-12
1.0415e-06
2.11748e-25
6.3852e-21
1.54105e-16
5.74497e-12
1.04305e-06
2.11216e-25
6.37368e-21
1.53911e-16
5.74445e-12
1.04338e-06
1.66401e-25
5.40313e-21
1.35872e-16
5.47692e-12
1.03941e-06
1.664e-25
5.40614e-21
1.38048e-16
6.05432e-12
1.03707e-06
2.11212e-25
6.37613e-21
1.56042e-16
6.31697e-12
1.04107e-06
2.11745e-25
6.38768e-21
1.56234e-16
6.31708e-12
1.04075e-06
2.13045e-25
6.41653e-21
1.56692e-16
6.31107e-12
1.03921e-06
2.12775e-25
6.41044e-21
1.56558e-16
6.30658e-12
1.03884e-06
2.11937e-25
6.39184e-21
1.56156e-16
6.29273e-12
1.03771e-06
2.11778e-25
6.38825e-21
1.56078e-16
6.29014e-12
1.0375e-06
2.11391e-25
6.37956e-21
1.5589e-16
6.28367e-12
1.03697e-06
2.11331e-25
6.37818e-21
1.55859e-16
6.2826e-12
1.03688e-06
2.11229e-25
6.37588e-21
1.55809e-16
6.28079e-12
1.03672e-06
2.11229e-25
6.37588e-21
1.55809e-16
6.28079e-12
1.03672e-06
2.11331e-25
6.37818e-21
1.55859e-16
6.2826e-12
1.03688e-06
2.11391e-25
6.37956e-21
1.5589e-16
6.28367e-12
1.03697e-06
2.11778e-25
6.38825e-21
1.56078e-16
6.29014e-12
1.0375e-06
2.11937e-25
6.39184e-21
1.56156e-16
6.29273e-12
1.03771e-06
2.12775e-25
6.41044e-21
1.56558e-16
6.30658e-12
1.03884e-06
2.13045e-25
6.41653e-21
1.56692e-16
6.31107e-12
1.03921e-06
2.11745e-25
6.38768e-21
1.56234e-16
6.31708e-12
1.04075e-06
2.11212e-25
6.37613e-21
1.56042e-16
6.31697e-12
1.04107e-06
1.664e-25
5.40614e-21
1.38048e-16
6.05432e-12
1.03707e-06
1.66403e-25
5.41056e-21
1.40581e-16
6.62995e-12
1.03479e-06
2.1121e-25
6.37993e-21
1.58521e-16
6.88771e-12
1.03882e-06
2.11745e-25
6.39151e-21
1.58711e-16
6.88742e-12
1.0385e-06
2.13045e-25
6.4203e-21
1.59153e-16
6.87928e-12
1.03699e-06
2.12775e-25
6.4142e-21
1.59016e-16
6.87445e-12
1.03662e-06
2.11936e-25
6.39558e-21
1.58607e-16
6.85947e-12
1.03551e-06
2.11778e-25
6.39199e-21
1.58527e-16
6.85668e-12
1.0353e-06
2.11391e-25
6.3833e-21
1.58335e-16
6.84967e-12
1.03477e-06
2.1133e-25
6.38192e-21
1.58304e-16
6.84853e-12
1.03468e-06
2.11229e-25
6.37961e-21
1.58252e-16
6.84656e-12
1.03453e-06
2.11229e-25
6.37961e-21
1.58252e-16
6.84656e-12
1.03453e-06
2.1133e-25
6.38192e-21
1.58304e-16
6.84853e-12
1.03468e-06
2.11391e-25
6.3833e-21
1.58335e-16
6.84967e-12
1.03477e-06
2.11778e-25
6.39199e-21
1.58527e-16
6.85668e-12
1.0353e-06
2.11936e-25
6.39558e-21
1.58607e-16
6.85947e-12
1.03551e-06
2.12775e-25
6.4142e-21
1.59016e-16
6.87445e-12
1.03662e-06
2.13045e-25
6.4203e-21
1.59152e-16
6.87928e-12
1.03699e-06
2.11745e-25
6.39151e-21
1.58711e-16
6.88742e-12
1.0385e-06
2.1121e-25
6.37993e-21
1.58521e-16
6.88771e-12
1.03882e-06
1.66403e-25
5.41056e-21
1.40581e-16
6.62995e-12
1.03479e-06
1.66409e-25
5.41664e-21
1.43469e-16
7.20373e-12
1.03257e-06
2.11211e-25
6.38531e-21
1.61348e-16
7.45659e-12
1.03664e-06
2.11748e-25
6.3969e-21
1.61535e-16
7.45591e-12
1.03632e-06
2.13048e-25
6.42562e-21
1.61958e-16
7.44566e-12
1.03483e-06
2.12778e-25
6.41951e-21
1.61819e-16
7.44049e-12
1.03447e-06
2.11939e-25
6.40087e-21
1.614e-16
7.42438e-12
1.03336e-06
2.11781e-25
6.39728e-21
1.61319e-16
7.4214e-12
1.03315e-06
2.11394e-25
6.38857e-21
1.61123e-16
7.41387e-12
1.03263e-06
2.11334e-25
6.38719e-21
1.61091e-16
7.41264e-12
1.03254e-06
2.11232e-25
6.38488e-21
1.61038e-16
7.41052e-12
1.03239e-06
2.11232e-25
6.38488e-21
1.61038e-16
7.41052e-12
1.03239e-06
2.11334e-25
6.38719e-21
1.61091e-16
7.41264e-12
1.03254e-06
2.11394e-25
6.38857e-21
1.61123e-16
7.41387e-12
1.03263e-06
2.11781e-25
6.39728e-21
1.61319e-16
7.4214e-12
1.03315e-06
2.11939e-25
6.40087e-21
1.614e-16
7.42438e-12
1.03336e-06
2.12778e-25
6.41951e-21
1.61819e-16
7.44049e-12
1.03447e-06
2.13048e-25
6.42562e-21
1.61958e-16
7.44566e-12
1.03483e-06
2.11748e-25
6.3969e-21
1.61534e-16
7.45591e-12
1.03632e-06
2.11211e-25
6.3853e-21
1.61348e-16
7.45659e-12
1.03664e-06
1.66409e-25
5.41664e-21
1.43469e-16
7.20373e-12
1.03257e-06
1.66421e-25
5.42458e-21
1.4671e-16
7.77559e-12
1.03042e-06
2.11217e-25
6.39246e-21
1.64521e-16
8.02353e-12
1.03451e-06
2.11757e-25
6.40408e-21
1.64704e-16
8.02245e-12
1.0342e-06
2.13056e-25
6.4327e-21
1.65107e-16
8.01013e-12
1.03272e-06
2.12786e-25
6.42659e-21
1.64965e-16
8.00462e-12
1.03236e-06
2.11947e-25
6.40792e-21
1.64536e-16
7.98739e-12
1.03126e-06
2.11789e-25
6.40432e-21
1.64453e-16
7.98422e-12
1.03106e-06
2.11402e-25
6.3956e-21
1.64252e-16
7.97617e-12
1.03054e-06
2.11342e-25
6.39421e-21
1.64219e-16
7.97486e-12
1.03045e-06
2.1124e-25
6.3919e-21
1.64165e-16
7.97258e-12
1.0303e-06
2.1124e-25
6.3919e-21
1.64165e-16
7.97258e-12
1.0303e-06
2.11342e-25
6.39421e-21
1.64219e-16
7.97486e-12
1.03045e-06
2.11402e-25
6.3956e-21
1.64252e-16
7.97617e-12
1.03054e-06
2.11789e-25
6.40432e-21
1.64453e-16
7.98422e-12
1.03106e-06
2.11947e-25
6.40792e-21
1.64536e-16
7.98739e-12
1.03126e-06
2.12786e-25
6.42659e-21
1.64965e-16
8.00462e-12
1.03236e-06
2.13056e-25
6.4327e-21
1.65107e-16
8.01013e-12
1.03272e-06
2.11757e-25
6.40408e-21
1.64704e-16
8.02245e-12
1.0342e-06
2.11217e-25
6.39246e-21
1.64521e-16
8.02353e-12
1.03451e-06
1.66421e-25
5.42458e-21
1.4671e-16
7.77559e-12
1.03042e-06
1.66439e-25
5.43461e-21
1.50304e-16
8.34542e-12
1.02831e-06
2.1123e-25
6.40162e-21
1.68038e-16
8.58843e-12
1.03243e-06
2.11771e-25
6.41326e-21
1.68218e-16
8.58697e-12
1.03212e-06
2.1307e-25
6.44177e-21
1.68598e-16
8.57258e-12
1.03066e-06
2.128e-25
6.43564e-21
1.68452e-16
8.56675e-12
1.03031e-06
2.11961e-25
6.41693e-21
1.68012e-16
8.54842e-12
1.02922e-06
2.11803e-25
6.41333e-21
1.67927e-16
8.54505e-12
1.02901e-06
2.11416e-25
6.40459e-21
1.67721e-16
8.53649e-12
1.0285e-06
2.11355e-25
6.4032e-21
1.67687e-16
8.5351e-12
1.02841e-06
2.11254e-25
6.40088e-21
1.67632e-16
8.53267e-12
1.02826e-06
2.11254e-25
6.40088e-21
1.67632e-16
8.53267e-12
1.02826e-06
2.11355e-25
6.4032e-21
1.67687e-16
8.5351e-12
1.02841e-06
2.11416e-25
6.40459e-21
1.67721e-16
8.53649e-12
1.0285e-06
2.11803e-25
6.41332e-21
1.67927e-16
8.54505e-12
1.02901e-06
2.11961e-25
6.41693e-21
1.68012e-16
8.54842e-12
1.02922e-06
2.128e-25
6.43564e-21
1.68452e-16
8.56675e-12
1.03031e-06
2.1307e-25
6.44177e-21
1.68598e-16
8.57258e-12
1.03066e-06
2.11771e-25
6.41326e-21
1.68218e-16
8.58697e-12
1.03212e-06
2.11229e-25
6.40162e-21
1.68038e-16
8.58843e-12
1.03243e-06
1.66439e-25
5.43461e-21
1.50304e-16
8.34542e-12
1.02831e-06
1.66466e-25
5.44695e-21
1.54248e-16
8.91314e-12
1.02625e-06
2.11249e-25
6.41299e-21
1.71898e-16
9.1512e-12
1.0304e-06
2.11793e-25
6.42465e-21
1.72074e-16
9.14936e-12
1.03009e-06
2.13092e-25
6.45302e-21
1.72429e-16
9.13294e-12
1.02865e-06
2.12821e-25
6.44688e-21
1.7228e-16
9.12679e-12
1.0283e-06
2.11983e-25
6.42812e-21
1.71827e-16
9.10736e-12
1.02722e-06
2.11824e-25
6.42451e-21
1.7174e-16
9.1038e-12
1.02702e-06
2.11437e-25
6.41575e-21
1.71528e-16
9.09474e-12
1.02651e-06
2.11377e-25
6.41436e-21
1.71494e-16
9.09326e-12
1.02642e-06
2.11275e-25
6.41203e-21
1.71436e-16
9.09069e-12
1.02627e-06
2.11275e-25
6.41203e-21
1.71436e-16
9.09069e-12
1.02627e-06
2.11377e-25
6.41436e-21
1.71494e-16
9.09326e-12
1.02642e-06
2.11437e-25
6.41575e-21
1.71528e-16
9.09473e-12
1.02651e-06
2.11824e-25
6.42451e-21
1.7174e-16
9.1038e-12
1.02702e-06
2.11983e-25
6.42812e-21
1.71827e-16
9.10736e-12
1.02722e-06
2.12821e-25
6.44688e-21
1.7228e-16
9.12679e-12
1.0283e-06
2.13092e-25
6.45302e-21
1.72429e-16
9.13294e-12
1.02865e-06
2.11793e-25
6.42465e-21
1.72074e-16
9.14936e-12
1.03009e-06
2.11249e-25
6.41299e-21
1.71898e-16
9.1512e-12
1.0304e-06
1.66466e-25
5.44695e-21
1.54248e-16
8.91314e-12
1.02625e-06
1.66503e-25
5.46183e-21
1.5854e-16
9.47864e-12
1.02424e-06
2.11278e-25
6.42678e-21
1.761e-16
9.71174e-12
1.0284e-06
2.11824e-25
6.43846e-21
1.76271e-16
9.70953e-12
1.0281e-06
2.13122e-25
6.46668e-21
1.76598e-16
9.69111e-12
1.02668e-06
2.12852e-25
6.46052e-21
1.76446e-16
9.68463e-12
1.02633e-06
2.12013e-25
6.4417e-21
1.75979e-16
9.66412e-12
1.02526e-06
2.11855e-25
6.43808e-21
1.7589e-16
9.66038e-12
1.02506e-06
2.11467e-25
6.42929e-21
1.75672e-16
9.65081e-12
1.02455e-06
2.11407e-25
6.42789e-21
1.75637e-16
9.64925e-12
1.02447e-06
2.11305e-25
6.42556e-21
1.75577e-16
9.64654e-12
1.02432e-06
2.11305e-25
6.42556e-21
1.75577e-16
9.64654e-12
1.02432e-06
2.11407e-25
6.42789e-21
1.75637e-16
9.64925e-12
1.02447e-06
2.11467e-25
6.42929e-21
1.75672e-16
9.65081e-12
1.02455e-06
2.11855e-25
6.43808e-21
1.7589e-16
9.66038e-12
1.02506e-06
2.12013e-25
6.4417e-21
1.75979e-16
9.66412e-12
1.02526e-06
2.12852e-25
6.46052e-21
1.76446e-16
9.68463e-12
1.02633e-06
2.13122e-25
6.46668e-21
1.76598e-16
9.69111e-12
1.02668e-06
2.11824e-25
6.43846e-21
1.76271e-16
9.70953e-12
1.0281e-06
2.11278e-25
6.42678e-21
1.76099e-16
9.71174e-12
1.0284e-06
1.66503e-25
5.46183e-21
1.5854e-16
9.47864e-12
1.02424e-06
1.66551e-25
5.47944e-21
1.6318e-16
1.00418e-11
1.02222e-06
2.11318e-25
6.44321e-21
1.8064e-16
1.02699e-11
1.02641e-06
2.11866e-25
6.45491e-21
1.80807e-16
1.02674e-11
1.02611e-06
2.13163e-25
6.48294e-21
1.81105e-16
1.0247e-11
1.02471e-06
2.12893e-25
6.47677e-21
1.80948e-16
1.02402e-11
1.02436e-06
2.12054e-25
6.45788e-21
1.80467e-16
1.02186e-11
1.0233e-06
2.11896e-25
6.45424e-21
1.80376e-16
1.02147e-11
1.0231e-06
2.11508e-25
6.44542e-21
1.80151e-16
1.02046e-11
1.0226e-06
2.11448e-25
6.44402e-21
1.80114e-16
1.0203e-11
1.02251e-06
2.11346e-25
6.44167e-21
1.80053e-16
1.02001e-11
1.02237e-06
2.11346e-25
6.44167e-21
1.80053e-16
1.02001e-11
1.02237e-06
2.11448e-25
6.44402e-21
1.80114e-16
1.0203e-11
1.02251e-06
2.11508e-25
6.44542e-21
1.80151e-16
1.02046e-11
1.0226e-06
2.11896e-25
6.45424e-21
1.80376e-16
1.02147e-11
1.0231e-06
2.12054e-25
6.45788e-21
1.80467e-16
1.02186e-11
1.0233e-06
2.12893e-25
6.47677e-21
1.80948e-16
1.02402e-11
1.02436e-06
2.13163e-25
6.48294e-21
1.81105e-16
1.0247e-11
1.02471e-06
2.11866e-25
6.45491e-21
1.80807e-16
1.02674e-11
1.02611e-06
2.11318e-25
6.44321e-21
1.8064e-16
1.02699e-11
1.02641e-06
1.66551e-25
5.47944e-21
1.6318e-16
1.00418e-11
1.02222e-06
0.00109552
0.000268429
1.14868e-05
1.0448e-07
1.48609e-10
3.78202e-13
3.62927e-13
3.64996e-13
3.65446e-13
3.65529e-13
3.65561e-13
3.65759e-13
3.66742e-13
3.67911e-13
3.77424e-13
3.85431e-13
4.68828e-13
5.13448e-13
1.64041e-12
1.91537e-12
0.00118209
0.000291489
1.27668e-05
1.20333e-07
1.81758e-10
3.90205e-13
3.62858e-13
3.64977e-13
3.65437e-13
3.65522e-13
3.65547e-13
3.65707e-13
3.66713e-13
3.67903e-13
3.77583e-13
3.85687e-13
4.70205e-13
5.15125e-13
1.65535e-12
1.93364e-12
0.00118238
0.000291471
1.27566e-05
1.20184e-07
1.81428e-10
3.90093e-13
3.62857e-13
3.64977e-13
3.65438e-13
3.65523e-13
3.65547e-13
3.6571e-13
3.66717e-13
3.67907e-13
3.77591e-13
3.85697e-13
4.70232e-13
5.15153e-13
1.6555e-12
1.93379e-12
0.00118333
0.000291057
1.2674e-05
1.18976e-07
1.78773e-10
3.89225e-13
3.62855e-13
3.64977e-13
3.65439e-13
3.65524e-13
3.6555e-13
3.65725e-13
3.66734e-13
3.67926e-13
3.77621e-13
3.85732e-13
4.70323e-13
5.1525e-13
1.65597e-12
1.93421e-12
0.00118228
0.000290736
1.2652e-05
1.18699e-07
1.78162e-10
3.88995e-13
3.62855e-13
3.64977e-13
3.65439e-13
3.65524e-13
3.6555e-13
3.65726e-13
3.66734e-13
3.67926e-13
3.77623e-13
3.85734e-13
4.70326e-13
5.15253e-13
1.65598e-12
1.93421e-12
0.00117947
0.000289734
1.2578e-05
1.17754e-07
1.76111e-10
3.88238e-13
3.62855e-13
3.64977e-13
3.65439e-13
3.65524e-13
3.6555e-13
3.65726e-13
3.66735e-13
3.67927e-13
3.77624e-13
3.85736e-13
4.7033e-13
5.15258e-13
1.656e-12
1.93423e-12
0.00117887
0.000289553
1.2566e-05
1.17604e-07
1.75783e-10
3.88113e-13
3.62855e-13
3.64977e-13
3.65439e-13
3.65524e-13
3.6555e-13
3.65726e-13
3.66735e-13
3.67927e-13
3.77624e-13
3.85736e-13
4.7033e-13
5.15258e-13
1.656e-12
1.93423e-12
0.00117754
0.00028909
1.25327e-05
1.17184e-07
1.74871e-10
3.87772e-13
3.62856e-13
3.64977e-13
3.65439e-13
3.65524e-13
3.6555e-13
3.65727e-13
3.66735e-13
3.67927e-13
3.77625e-13
3.85736e-13
4.70331e-13
5.15258e-13
1.656e-12
1.93423e-12
0.0011773
0.000289017
1.25278e-05
1.17124e-07
1.74739e-10
3.87721e-13
3.62856e-13
3.64977e-13
3.65439e-13
3.65524e-13
3.6555e-13
3.65727e-13
3.66735e-13
3.67927e-13
3.77625e-13
3.85736e-13
4.70331e-13
5.15258e-13
1.656e-12
1.93423e-12
0.00117693
0.000288888
1.25185e-05
1.17007e-07
1.74486e-10
3.87626e-13
3.62856e-13
3.64977e-13
3.65439e-13
3.65524e-13
3.6555e-13
3.65727e-13
3.66735e-13
3.67927e-13
3.77625e-13
3.85736e-13
4.70331e-13
5.15258e-13
1.656e-12
1.93423e-12
0.00117693
0.000288888
1.25185e-05
1.17007e-07
1.74486e-10
3.87626e-13
3.62856e-13
3.64977e-13
3.65439e-13
3.65524e-13
3.6555e-13
3.65727e-13
3.66735e-13
3.67927e-13
3.77625e-13
3.85736e-13
4.70331e-13
5.15258e-13
1.656e-12
1.93423e-12
0.0011773
0.000289017
1.25278e-05
1.17124e-07
1.74739e-10
3.87721e-13
3.62856e-13
3.64977e-13
3.65439e-13
3.65524e-13
3.6555e-13
3.65727e-13
3.66735e-13
3.67927e-13
3.77625e-13
3.85736e-13
4.70331e-13
5.15258e-13
1.656e-12
1.93423e-12
0.00117754
0.00028909
1.25327e-05
1.17184e-07
1.74871e-10
3.87772e-13
3.62856e-13
3.64977e-13
3.65439e-13
3.65524e-13
3.6555e-13
3.65727e-13
3.66735e-13
3.67927e-13
3.77625e-13
3.85736e-13
4.70331e-13
5.15258e-13
1.656e-12
1.93423e-12
0.00117887
0.000289553
1.2566e-05
1.17604e-07
1.75783e-10
3.88113e-13
3.62855e-13
3.64977e-13
3.65439e-13
3.65524e-13
3.6555e-13
3.65726e-13
3.66735e-13
3.67927e-13
3.77624e-13
3.85736e-13
4.7033e-13
5.15258e-13
1.656e-12
1.93423e-12
0.00117947
0.000289734
1.2578e-05
1.17754e-07
1.76111e-10
3.88238e-13
3.62855e-13
3.64977e-13
3.65439e-13
3.65524e-13
3.6555e-13
3.65726e-13
3.66735e-13
3.67927e-13
3.77624e-13
3.85736e-13
4.7033e-13
5.15258e-13
1.656e-12
1.93423e-12
0.00118228
0.000290736
1.2652e-05
1.18699e-07
1.78162e-10
3.88995e-13
3.62855e-13
3.64977e-13
3.65439e-13
3.65524e-13
3.6555e-13
3.65726e-13
3.66734e-13
3.67926e-13
3.77623e-13
3.85734e-13
4.70326e-13
5.15253e-13
1.65598e-12
1.93421e-12
0.00118333
0.000291057
1.2674e-05
1.18976e-07
1.78773e-10
3.89225e-13
3.62855e-13
3.64977e-13
3.65439e-13
3.65524e-13
3.6555e-13
3.65725e-13
3.66734e-13
3.67926e-13
3.77621e-13
3.85732e-13
4.70323e-13
5.1525e-13
1.65597e-12
1.93421e-12
0.00118238
0.000291471
1.27566e-05
1.20184e-07
1.81428e-10
3.90093e-13
3.62857e-13
3.64977e-13
3.65438e-13
3.65523e-13
3.65547e-13
3.6571e-13
3.66717e-13
3.67907e-13
3.77591e-13
3.85697e-13
4.70232e-13
5.15153e-13
1.6555e-12
1.93379e-12
0.00118209
0.000291489
1.27668e-05
1.20333e-07
1.81758e-10
3.90205e-13
3.62858e-13
3.64977e-13
3.65437e-13
3.65522e-13
3.65547e-13
3.65707e-13
3.66713e-13
3.67903e-13
3.77583e-13
3.85687e-13
4.70205e-13
5.15125e-13
1.65535e-12
1.93364e-12
0.00109552
0.000268429
1.14868e-05
1.0448e-07
1.48609e-10
3.78202e-13
3.62927e-13
3.64996e-13
3.65446e-13
3.65529e-13
3.65561e-13
3.65759e-13
3.66742e-13
3.67911e-13
3.77424e-13
3.85431e-13
4.68828e-13
5.13448e-13
1.64041e-12
1.91537e-12
0.0148547
0.00483878
0.000300515
3.57216e-06
6.76374e-09
1.57419e-11
1.40797e-11
1.41696e-11
1.41892e-11
1.41929e-11
1.41942e-11
1.42021e-11
1.4241e-11
1.42869e-11
1.46595e-11
1.49708e-11
1.82126e-11
1.99294e-11
6.3207e-11
7.35415e-11
0.0157139
0.00516292
0.00032792
4.01982e-06
7.95185e-09
1.63049e-11
1.40767e-11
1.41687e-11
1.41888e-11
1.41926e-11
1.41937e-11
1.42001e-11
1.42399e-11
1.42866e-11
1.46658e-11
1.49809e-11
1.82667e-11
1.9995e-11
6.37827e-11
7.42429e-11
0.0157144
0.00516178
0.00032759
4.01392e-06
7.93581e-09
1.6298e-11
1.40767e-11
1.41687e-11
1.41888e-11
1.41926e-11
1.41937e-11
1.42002e-11
1.424e-11
1.42867e-11
1.46661e-11
1.49813e-11
1.82677e-11
1.99961e-11
6.37884e-11
7.42486e-11
0.0157197
0.00515332
0.00032533
3.97141e-06
7.81798e-09
1.62463e-11
1.40765e-11
1.41687e-11
1.41889e-11
1.41927e-11