/*--------------------------------*- C++ -*----------------------------------*\
  =========                 |
  \\      /  F ield         | OpenFOAM: The Open Source CFD Toolbox
   \\    /   O peration     | Website:  https://openfoam.org
    \\  /    A nd           | Version:  8
     \\/     M anipulation  |
\*---------------------------------------------------------------------------*/
FoamFile
{
    version     2.0;
    format      ascii;
    class       volScalarField;
    location    "4.2";
    object      p;
}
// * * * * * * * * * * * * * * * * * * * * * * * * * * * * * * * * * * * * * //

dimensions      [0 2 -2 0 0 0 0];

internalField   nonuniform List<scalar> 
180000
(
0.000901654
0.000840716
0.000878992
0.000748862
0.000817746
0.000887093
0.000826386
0.000864379
0.000735578
0.000803316
0.000886257
0.000825589
0.000863543
0.00073488
0.000802529
0.000881938
0.000821436
0.000859207
0.000731216
0.000798461
0.000881351
0.000820877
0.000858617
0.000730727
0.000797907
0.000879358
0.000818974
0.000856611
0.000729056
0.00079603
0.000879026
0.000818658
0.000856275
0.000728778
0.000795714
0.000878112
0.000817787
0.000855354
0.000728013
0.000794851
0.000877969
0.000817651
0.000855209
0.000727893
0.000794714
0.000877704
0.000817398
0.000854941
0.000727671
0.000794463
0.000877704
0.000817398
0.000854941
0.000727671
0.000794463
0.000877969
0.000817651
0.000855209
0.000727893
0.000794714
0.000878112
0.000817787
0.000855354
0.000728013
0.000794851
0.000879026
0.000818658
0.000856275
0.000728778
0.000795714
0.000879358
0.000818974
0.000856611
0.000729056
0.00079603
0.000881351
0.000820877
0.000858617
0.000730727
0.000797907
0.000881938
0.000821436
0.000859207
0.000731216
0.000798461
0.000886257
0.000825589
0.000863543
0.00073488
0.000802529
0.000887093
0.000826386
0.000864379
0.000735578
0.000803316
0.000901654
0.000840716
0.000878992
0.000748862
0.000817746
0.000735268
0.000707096
0.000725727
0.000656803
0.000695961
0.000728928
0.000699961
0.000719023
0.000649007
0.000688437
0.000728556
0.000699556
0.000718631
0.00064859
0.000688019
0.000726591
0.000697406
0.000716556
0.000646367
0.000685817
0.000726325
0.000697118
0.000716274
0.000646071
0.000685517
0.00072541
0.000696125
0.000715306
0.000645051
0.000684494
0.000725258
0.000695961
0.000715145
0.000644882
0.000684322
0.000724837
0.000695505
0.000714698
0.000644414
0.00068385
0.000724771
0.000695434
0.000714628
0.000644341
0.000683776
0.000724649
0.000695301
0.000714498
0.000644205
0.000683639
0.000724649
0.000695301
0.000714498
0.000644205
0.000683639
0.000724771
0.000695434
0.000714628
0.000644341
0.000683776
0.000724837
0.000695505
0.000714698
0.000644414
0.00068385
0.000725258
0.000695961
0.000715145
0.000644882
0.000684322
0.00072541
0.000696125
0.000715306
0.000645051
0.000684494
0.000726325
0.000697118
0.000716274
0.000646071
0.000685517
0.000726591
0.000697406
0.000716556
0.000646367
0.000685817
0.000728556
0.000699556
0.000718631
0.00064859
0.000688019
0.000728928
0.000699961
0.000719023
0.000649007
0.000688437
0.000735268
0.000707096
0.000725727
0.000656803
0.000695961
0.000527841
0.000505446
0.000520708
0.000466801
0.00049976
0.000522743
0.000499984
0.000515427
0.000461132
0.000494069
0.000522444
0.000499673
0.000515118
0.000460827
0.00049375
0.000520834
0.000497992
0.000513451
0.000459167
0.000492042
0.000520618
0.000497768
0.000513227
0.000458948
0.000491811
0.00051987
0.000496993
0.00051245
0.000458187
0.000491018
0.000519746
0.000496866
0.000512322
0.000458062
0.000490886
0.000519402
0.00049651
0.000511964
0.000457713
0.000490521
0.000519349
0.000496455
0.000511909
0.000457659
0.000490464
0.000519249
0.000496352
0.000511805
0.000457557
0.000490357
0.000519249
0.000496352
0.000511805
0.000457557
0.000490357
0.000519349
0.000496455
0.000511909
0.000457659
0.000490464
0.000519402
0.00049651
0.000511964
0.000457713
0.000490521
0.000519746
0.000496866
0.000512322
0.000458062
0.000490886
0.00051987
0.000496993
0.00051245
0.000458187
0.000491018
0.000520618
0.000497768
0.000513227
0.000458948
0.000491811
0.000520834
0.000497992
0.000513451
0.000459167
0.000492042
0.000522444
0.000499673
0.000515118
0.000460827
0.00049375
0.000522743
0.000499984
0.000515427
0.000461132
0.000494069
0.000527841
0.000505446
0.000520708
0.000466801
0.00049976
0.000493381
0.000467183
0.000485135
0.000424456
0.000463751
0.000487296
0.000461021
0.000478971
0.000418499
0.000457459
0.000486938
0.000460669
0.000478609
0.000418176
0.000457104
0.000485012
0.00045876
0.000476656
0.000416409
0.000455194
0.000484754
0.000458508
0.000476394
0.000416177
0.000454937
0.000483863
0.00045763
0.000475487
0.000415369
0.000454053
0.000483716
0.000457486
0.000475337
0.000415236
0.000453906
0.000483307
0.000457084
0.00047492
0.000414866
0.000453498
0.000483243
0.000457022
0.000474855
0.000414809
0.000453435
0.000483124
0.000456905
0.000474734
0.000414701
0.000453316
0.000483124
0.000456905
0.000474734
0.000414701
0.000453316
0.000483243
0.000457022
0.000474855
0.000414809
0.000453435
0.000483307
0.000457084
0.00047492
0.000414866
0.000453498
0.000483716
0.000457486
0.000475337
0.000415236
0.000453906
0.000483863
0.00045763
0.000475487
0.000415369
0.000454053
0.000484754
0.000458508
0.000476394
0.000416177
0.000454937
0.000485012
0.00045876
0.000476656
0.000416409
0.000455194
0.000486938
0.000460669
0.000478609
0.000418176
0.000457104
0.000487296
0.000461021
0.000478971
0.000418499
0.000457459
0.000493381
0.000467183
0.000485135
0.000424456
0.000463751
0.00051639
0.000488695
0.00050802
0.000443181
0.00048807
0.000509979
0.0004822
0.000501525
0.000436912
0.000481461
0.000509598
0.000481825
0.000501139
0.000436569
0.000481082
0.000507537
0.000479782
0.00049905
0.00043468
0.000479036
0.000507262
0.000479512
0.00049877
0.000434432
0.000478762
0.000506308
0.000478572
0.000497799
0.000433568
0.000477814
0.000506151
0.000478419
0.000497639
0.000433426
0.000477657
0.000505713
0.000477988
0.000497193
0.00043303
0.00047722
0.000505645
0.000477922
0.000497123
0.000432969
0.000477152
0.000505518
0.000477797
0.000496994
0.000432854
0.000477025
0.000505518
0.000477797
0.000496994
0.000432854
0.000477025
0.000505645
0.000477922
0.000497123
0.000432969
0.000477152
0.000505713
0.000477988
0.000497193
0.00043303
0.00047722
0.000506151
0.000478419
0.000497639
0.000433426
0.000477657
0.000506308
0.000478572
0.000497799
0.000433568
0.000477814
0.000507262
0.000479512
0.00049877
0.000434432
0.000478762
0.000507537
0.000479782
0.00049905
0.00043468
0.000479036
0.000509598
0.000481825
0.000501139
0.000436569
0.000481082
0.000509979
0.0004822
0.000501525
0.000436912
0.000481461
0.00051639
0.000488695
0.00050802
0.000443181
0.00048807
0.00052918
0.00050206
0.000521472
0.000456709
0.000505211
0.000522954
0.000495706
0.000515148
0.000450515
0.000498746
0.000522578
0.000495334
0.000514767
0.000450171
0.000498369
0.000520536
0.000493295
0.00051269
0.000448267
0.000496317
0.000520264
0.000493026
0.000512413
0.000448018
0.000496043
0.000519316
0.000492086
0.000511447
0.000447145
0.000495091
0.000519161
0.000491933
0.000511288
0.000447003
0.000494933
0.000518725
0.000491502
0.000510843
0.000446602
0.000494495
0.000518658
0.000491436
0.000510775
0.000446541
0.000494427
0.000518532
0.000491311
0.000510645
0.000446424
0.000494299
0.000518532
0.000491311
0.000510645
0.000446424
0.000494299
0.000518658
0.000491436
0.000510775
0.000446541
0.000494427
0.000518725
0.000491502
0.000510843
0.000446602
0.000494495
0.000519161
0.000491933
0.000511288
0.000447003
0.000494933
0.000519316
0.000492086
0.000511447
0.000447145
0.000495091
0.000520264
0.000493026
0.000512413
0.000448018
0.000496043
0.000520536
0.000493295
0.00051269
0.000448267
0.000496317
0.000522578
0.000495334
0.000514767
0.000450171
0.000498369
0.000522954
0.000495706
0.000515148
0.000450515
0.000498746
0.00052918
0.00050206
0.000521472
0.000456709
0.000505211
0.000529105
0.000502736
0.000522101
0.000458212
0.000509997
0.000523093
0.000496587
0.000515991
0.000452199
0.000503748
0.000522726
0.000496224
0.00051562
0.000451862
0.000503378
0.000520713
0.000494211
0.000513572
0.000449974
0.000501344
0.000520446
0.000493946
0.0005133
0.000449728
0.000501073
0.000519511
0.000493018
0.000512346
0.000448862
0.000500129
0.000519359
0.000492867
0.00051219
0.000448721
0.000499973
0.000518929
0.000492441
0.000511751
0.000448324
0.000499538
0.000518863
0.000492376
0.000511683
0.000448263
0.00049947
0.000518739
0.000492252
0.000511556
0.000448147
0.000499344
0.000518739
0.000492252
0.000511556
0.000448147
0.000499344
0.000518863
0.000492376
0.000511683
0.000448263
0.00049947
0.000518929
0.000492441
0.000511751
0.000448324
0.000499538
0.000519359
0.000492867
0.00051219
0.000448721
0.000499973
0.000519511
0.000493018
0.000512346
0.000448862
0.000500129
0.000520446
0.000493946
0.0005133
0.000449728
0.000501073
0.000520713
0.000494211
0.000513572
0.000449974
0.000501344
0.000522726
0.000496224
0.00051562
0.000451862
0.000503378
0.000523093
0.000496587
0.000515991
0.000452199
0.000503748
0.000529105
0.000502736
0.000522101
0.000458212
0.000509997
0.000526476
0.000500522
0.000520033
0.000456562
0.000511681
0.000520591
0.000494513
0.000514058
0.000450692
0.000505583
0.000520229
0.000494154
0.000513691
0.000450359
0.000505216
0.000518222
0.00049215
0.000511652
0.000448479
0.000503185
0.000517957
0.000491887
0.000511381
0.000448235
0.000502915
0.000517024
0.000490962
0.00051043
0.000447371
0.000501971
0.000516872
0.000490812
0.000510275
0.000447232
0.000501816
0.000516444
0.000490387
0.000509837
0.000446835
0.00050138
0.000516378
0.000490323
0.00050977
0.000446775
0.000501313
0.000516254
0.0004902
0.000509643
0.00044666
0.000501187
0.000516254
0.0004902
0.000509643
0.00044666
0.000501187
0.000516378
0.000490323
0.00050977
0.000446775
0.000501313
0.000516444
0.000490387
0.000509837
0.000446835
0.00050138
0.000516872
0.000490812
0.000510275
0.000447232
0.000501816
0.000517024
0.000490962
0.00051043
0.000447371
0.000501971
0.000517957
0.000491887
0.000511381
0.000448235
0.000502915
0.000518222
0.00049215
0.000511652
0.000448479
0.000503185
0.000520229
0.000494154
0.000513691
0.000450359
0.000505216
0.000520591
0.000494513
0.000514058
0.000450692
0.000505583
0.000526476
0.000500522
0.000520033
0.000456562
0.000511681
0.000525234
0.00049955
0.000519287
0.000456005
0.000514104
0.000519441
0.000493644
0.000513412
0.000450243
0.000508115
0.000519082
0.000493288
0.000513047
0.000449913
0.00050775
0.000517073
0.000491283
0.000511006
0.000448033
0.000505713
0.000516808
0.000491022
0.000510736
0.000447789
0.000505443
0.000515872
0.000490095
0.000509784
0.000446924
0.000504495
0.000515721
0.000489945
0.000509628
0.000446785
0.000504339
0.000515291
0.00048952
0.00050919
0.000446388
0.000503902
0.000515226
0.000489456
0.000509123
0.000446327
0.000503835
0.000515101
0.000489332
0.000508995
0.000446212
0.000503708
0.000515101
0.000489332
0.000508995
0.000446212
0.000503708
0.000515226
0.000489456
0.000509123
0.000446327
0.000503835
0.000515291
0.00048952
0.00050919
0.000446388
0.000503902
0.000515721
0.000489945
0.000509628
0.000446785
0.000504339
0.000515872
0.000490095
0.000509784
0.000446924
0.000504495
0.000516808
0.000491022
0.000510736
0.000447789
0.000505443
0.000517073
0.000491283
0.000511006
0.000448033
0.000505713
0.000519082
0.000493288
0.000513047
0.000449913
0.00050775
0.000519441
0.000493644
0.000513412
0.000450243
0.000508115
0.000525234
0.00049955
0.000519287
0.000456005
0.000514104
0.00052493
0.000499518
0.000519469
0.000456442
0.000516818
0.000519233
0.000493716
0.000513694
0.000450782
0.000510925
0.000518875
0.000493362
0.000513333
0.000450454
0.000510562
0.000516865
0.000491357
0.000511292
0.000448572
0.000508519
0.000516601
0.000491096
0.000511022
0.000448329
0.000508249
0.000515664
0.000490168
0.000510068
0.000447462
0.000507297
0.000515512
0.000490019
0.000509913
0.000447323
0.000507142
0.000515082
0.000489593
0.000509474
0.000446925
0.000506703
0.000515016
0.000489529
0.000509407
0.000446865
0.000506635
0.000514891
0.000489405
0.000509279
0.000446749
0.000506508
0.000514891
0.000489405
0.000509279
0.000446749
0.000506508
0.000515016
0.000489529
0.000509407
0.000446865
0.000506635
0.000515082
0.000489593
0.000509474
0.000446925
0.000506703
0.000515512
0.000490019
0.000509913
0.000447323
0.000507142
0.000515664
0.000490168
0.000510068
0.000447462
0.000507297
0.000516601
0.000491096
0.000511022
0.000448329
0.000508249
0.000516865
0.000491357
0.000511292
0.000448572
0.000508519
0.000518875
0.000493362
0.000513333
0.000450454
0.000510562
0.000519233
0.000493716
0.000513694
0.000450782
0.000510925
0.00052493
0.000499518
0.000519469
0.000456442
0.000516818
0.000524721
0.000499601
0.00051974
0.00045708
0.00051868
0.000519124
0.000493904
0.000514071
0.000451523
0.000512871
0.000518769
0.000493554
0.000513712
0.000451197
0.000512509
0.000516761
0.000491551
0.000511673
0.000449315
0.000510461
0.000516498
0.000491291
0.000511405
0.000449073
0.000510191
0.00051556
0.000490363
0.00051045
0.000448204
0.000509235
0.000515409
0.000490214
0.000510296
0.000448065
0.000509079
0.000514978
0.000489788
0.000509856
0.000447666
0.000508639
0.000514913
0.000489724
0.000509789
0.000447606
0.000508571
0.000514787
0.0004896
0.000509661
0.00044749
0.000508443
0.000514787
0.0004896
0.000509661
0.00044749
0.000508443
0.000514913
0.000489724
0.000509789
0.000447606
0.000508571
0.000514978
0.000489788
0.000509856
0.000447666
0.000508639
0.000515409
0.000490214
0.000510296
0.000448065
0.000509079
0.00051556
0.000490363
0.00051045
0.000448204
0.000509235
0.000516498
0.000491291
0.000511405
0.000449073
0.000510191
0.000516761
0.000491551
0.000511673
0.000449315
0.000510461
0.000518769
0.000493554
0.000513712
0.000451197
0.000512509
0.000519124
0.000493904
0.000514071
0.000451523
0.000512871
0.000524721
0.000499601
0.00051974
0.00045708
0.00051868
0.000524398
0.000499566
0.00051988
0.000457616
0.000517477
0.000518901
0.000493975
0.000514316
0.00045216
0.000511768
0.000518549
0.000493627
0.00051396
0.000451836
0.000511409
0.000516543
0.000491628
0.000511924
0.000449955
0.000509365
0.000516281
0.000491369
0.000511657
0.000449714
0.000509096
0.000515342
0.00049044
0.000510702
0.000448844
0.00050814
0.000515192
0.000490292
0.000510548
0.000448705
0.000507985
0.00051476
0.000489866
0.000510108
0.000448306
0.000507544
0.000514695
0.000489802
0.000510042
0.000448246
0.000507476
0.00051457
0.000489678
0.000509914
0.00044813
0.000507348
0.00051457
0.000489678
0.000509914
0.00044813
0.000507348
0.000514695
0.000489802
0.000510042
0.000448246
0.000507476
0.00051476
0.000489866
0.000510108
0.000448306
0.000507544
0.000515192
0.000490292
0.000510548
0.000448705
0.000507985
0.000515342
0.00049044
0.000510702
0.000448844
0.00050814
0.000516281
0.000491369
0.000511657
0.000449714
0.000509096
0.000516543
0.000491628
0.000511924
0.000449955
0.000509365
0.000518549
0.000493627
0.00051396
0.000451836
0.000511409
0.000518901
0.000493975
0.000514316
0.00045216
0.000511768
0.000524398
0.000499566
0.00051988
0.000457616
0.000517477
0.000524037
0.000499478
0.000519962
0.000458022
0.000515403
0.000518636
0.00049399
0.0005145
0.000452665
0.000509796
0.000518287
0.000493646
0.000514147
0.000452344
0.000509441
0.000516283
0.000491649
0.000512114
0.000450465
0.000507403
0.000516022
0.000491392
0.000511848
0.000450224
0.000507136
0.000515083
0.000490463
0.000510893
0.000449353
0.00050618
0.000514933
0.000490315
0.00051074
0.000449215
0.000506026
0.000514501
0.000489889
0.000510299
0.000448815
0.000505585
0.000514437
0.000489825
0.000510233
0.000448755
0.000505518
0.000514311
0.000489701
0.000510105
0.000448639
0.00050539
0.000514311
0.000489701
0.000510105
0.000448639
0.00050539
0.000514437
0.000489825
0.000510233
0.000448755
0.000505518
0.000514501
0.000489889
0.000510299
0.000448815
0.000505585
0.000514933
0.000490315
0.00051074
0.000449215
0.000506026
0.000515083
0.000490463
0.000510893
0.000449353
0.00050618
0.000516022
0.000491392
0.000511848
0.000450224
0.000507136
0.000516283
0.000491649
0.000512114
0.000450465
0.000507403
0.000518287
0.000493646
0.000514147
0.000452344
0.000509441
0.000518636
0.00049399
0.0005145
0.000452665
0.000509796
0.000524037
0.000499478
0.000519962
0.000458022
0.000515403
0.000523698
0.000499403
0.00052005
0.000458345
0.000513589
0.000518392
0.000494014
0.000514687
0.000453086
0.000508082
0.000518045
0.000493672
0.000514337
0.000452768
0.00050773
0.000516045
0.00049168
0.000512307
0.00045089
0.000505698
0.000515784
0.000491423
0.000512042
0.00045065
0.000505432
0.000514845
0.000490494
0.000511087
0.000449779
0.000504478
0.000514695
0.000490347
0.000510934
0.000449641
0.000504324
0.000514263
0.00048992
0.000510494
0.00044924
0.000503884
0.000514199
0.000489857
0.000510427
0.00044918
0.000503817
0.000514073
0.000489733
0.000510299
0.000449064
0.000503689
0.000514073
0.000489733
0.000510299
0.000449064
0.000503689
0.000514199
0.000489857
0.000510427
0.00044918
0.000503817
0.000514263
0.00048992
0.000510494
0.00044924
0.000503884
0.000514695
0.000490347
0.000510934
0.000449641
0.000504324
0.000514845
0.000490494
0.000511087
0.000449779
0.000504478
0.000515784
0.000491423
0.000512042
0.00045065
0.000505432
0.000516045
0.00049168
0.000512307
0.00045089
0.000505698
0.000518045
0.000493672
0.000514337
0.000452768
0.00050773
0.000518392
0.000494014
0.000514687
0.000453086
0.000508082
0.000523698
0.000499403
0.00052005
0.000458345
0.000513589
0.000523391
0.000499349
0.000520155
0.000458608
0.000512037
0.000518177
0.000494058
0.000514888
0.000453446
0.000506626
0.000517833
0.000493719
0.000514541
0.00045313
0.000506278
0.000515835
0.000491729
0.000512515
0.000451255
0.000504251
0.000515575
0.000491474
0.000512251
0.000451015
0.000503987
0.000514636
0.000490545
0.000511295
0.000450143
0.000503033
0.000514487
0.000490398
0.000511143
0.000450006
0.00050288
0.000514054
0.000489971
0.000510702
0.000449605
0.00050244
0.00051399
0.000489908
0.000510636
0.000449545
0.000502374
0.000513864
0.000489784
0.000510508
0.000449429
0.000502246
0.000513864
0.000489784
0.000510508
0.000449429
0.000502246
0.00051399
0.000489908
0.000510636
0.000449545
0.000502374
0.000514054
0.000489971
0.000510702
0.000449605
0.00050244
0.000514487
0.000490398
0.000511143
0.000450006
0.00050288
0.000514636
0.000490545
0.000511295
0.000450143
0.000503033
0.000515575
0.000491474
0.000512251
0.000451015
0.000503987
0.000515835
0.000491729
0.000512515
0.000451255
0.000504251
0.000517833
0.000493719
0.000514541
0.00045313
0.000506278
0.000518177
0.000494058
0.000514888
0.000453446
0.000506626
0.000523391
0.000499349
0.000520155
0.000458608
0.000512037
0.000523106
0.000499309
0.000520269
0.000458811
0.000510549
0.000517982
0.000494113
0.000515097
0.000453744
0.000505232
0.00051764
0.000493776
0.000514752
0.00045343
0.000504886
0.000515646
0.000491791
0.00051273
0.000451558
0.000502866
0.000515387
0.000491536
0.000512467
0.000451319
0.000502603
0.000514448
0.000490608
0.000511512
0.000450447
0.00050165
0.000514299
0.000490461
0.00051136
0.00045031
0.000501497
0.000513866
0.000490034
0.000510919
0.000449909
0.000501058
0.000513802
0.000489971
0.000510853
0.000449849
0.000500991
0.000513676
0.000489847
0.000510725
0.000449733
0.000500863
0.000513676
0.000489847
0.000510725
0.000449733
0.000500863
0.000513802
0.000489971
0.000510853
0.000449849
0.000500991
0.000513866
0.000490034
0.000510919
0.000449909
0.000501058
0.000514299
0.000490461
0.00051136
0.00045031
0.000501497
0.000514448
0.000490608
0.000511512
0.000450447
0.00050165
0.000515387
0.000491536
0.000512467
0.000451319
0.000502603
0.000515646
0.000491791
0.00051273
0.000451558
0.000502866
0.00051764
0.000493776
0.000514752
0.00045343
0.000504886
0.000517982
0.000494113
0.000515097
0.000453744
0.000505232
0.000523106
0.000499309
0.000520269
0.000458811
0.000510549
0.000522838
0.000499278
0.00052039
0.000458951
0.000509054
0.000517803
0.000494175
0.00051531
0.000453977
0.000503828
0.000517464
0.000493841
0.000514968
0.000453666
0.000503486
0.000515473
0.00049186
0.000512951
0.000451798
0.000501473
0.000515215
0.000491607
0.000512689
0.00045156
0.00050121
0.000514276
0.000490678
0.000511733
0.000450688
0.000500259
0.000514127
0.000490532
0.000511582
0.000450551
0.000500107
0.000513694
0.000490105
0.000511141
0.00045015
0.000499667
0.00051363
0.000490042
0.000511075
0.00045009
0.000499601
0.000513504
0.000489918
0.000510947
0.000449974
0.000499473
0.000513504
0.000489918
0.000510947
0.000449974
0.000499473
0.00051363
0.000490042
0.000511075
0.00045009
0.000499601
0.000513694
0.000490105
0.000511141
0.00045015
0.000499667
0.000514127
0.000490532
0.000511582
0.000450551
0.000500107
0.000514276
0.000490678
0.000511733
0.000450688
0.000500259
0.000515215
0.000491607
0.000512689
0.00045156
0.00050121
0.000515473
0.00049186
0.000512951
0.000451798
0.000501473
0.000517464
0.000493841
0.000514968
0.000453666
0.000503486
0.000517803
0.000494175
0.00051531
0.000453977
0.000503828
0.000522838
0.000499278
0.00052039
0.000458951
0.000509054
0.000522588
0.000499256
0.000520518
0.000459029
0.000507565
0.000517639
0.000494244
0.000515529
0.000454147
0.000502428
0.000517302
0.000493913
0.00051519
0.000453838
0.000502089
0.000515315
0.000491937
0.000513177
0.000451974
0.000500082
0.000515059
0.000491684
0.000512916
0.000451738
0.000499821
0.000514119
0.000490756
0.00051196
0.000450866
0.000498871
0.000513971
0.00049061
0.000511809
0.000450729
0.000498719
0.000513538
0.000490183
0.000511368
0.000450328
0.00049828
0.000513474
0.00049012
0.000511303
0.000450268
0.000498214
0.000513348
0.000489996
0.000511175
0.000450152
0.000498086
0.000513348
0.000489996
0.000511175
0.000450152
0.000498086
0.000513474
0.00049012
0.000511303
0.000450268
0.000498214
0.000513538
0.000490183
0.000511368
0.000450328
0.00049828
0.000513971
0.00049061
0.000511809
0.000450729
0.000498719
0.000514119
0.000490756
0.00051196
0.000450866
0.000498871
0.000515059
0.000491684
0.000512916
0.000451738
0.000499821
0.000515315
0.000491937
0.000513177
0.000451974
0.000500082
0.000517302
0.000493913
0.00051519
0.000453838
0.000502089
0.000517639
0.000494244
0.000515529
0.000454147
0.000502428
0.000522588
0.000499256
0.000520518
0.000459029
0.000507565
0.000522355
0.000499245
0.000520656
0.000459045
0.000506094
0.000517491
0.000494322
0.000515756
0.000454254
0.000501044
0.000517156
0.000493993
0.000515419
0.000453947
0.000500707
0.000515174
0.000492021
0.00051341
0.000452088
0.000498708
0.000514918
0.00049177
0.000513151
0.000451853
0.000498449
0.000513978
0.000490841
0.000512195
0.000450981
0.000497499
0.000513831
0.000490696
0.000512045
0.000450845
0.000497348
0.000513398
0.000490269
0.000511604
0.000450443
0.000496909
0.000513334
0.000490207
0.000511538
0.000450384
0.000496844
0.000513208
0.000490083
0.00051141
0.000450268
0.000496716
0.000513208
0.000490083
0.00051141
0.000450268
0.000496716
0.000513334
0.000490207
0.000511538
0.000450384
0.000496844
0.000513398
0.000490269
0.000511604
0.000450443
0.000496909
0.000513831
0.000490696
0.000512045
0.000450845
0.000497348
0.000513978
0.000490841
0.000512195
0.000450981
0.000497499
0.000514918
0.00049177
0.000513151
0.000451853
0.000498449
0.000515174
0.000492021
0.00051341
0.000452088
0.000498708
0.000517156
0.000493993
0.000515419
0.000453947
0.000500707
0.000517491
0.000494322
0.000515756
0.000454254
0.000501044
0.000522355
0.000499245
0.000520656
0.000459045
0.000506094
0.00052214
0.000499243
0.000520804
0.000459001
0.000504576
0.000517358
0.000494407
0.000515991
0.000454298
0.000499612
0.000517026
0.00049408
0.000515657
0.000453994
0.000499278
0.000515048
0.000492114
0.000513653
0.000452141
0.000497287
0.000514793
0.000491863
0.000513395
0.000451906
0.000497028
0.000513854
0.000490936
0.000512439
0.000451035
0.00049608
0.000513707
0.000490791
0.000512289
0.000450899
0.00049593
0.000513273
0.000490364
0.000511848
0.000450498
0.000495491
0.00051321
0.000490302
0.000511783
0.000450439
0.000495426
0.000513084
0.000490177
0.000511655
0.000450323
0.000495298
0.000513084
0.000490177
0.000511655
0.000450323
0.000495298
0.00051321
0.000490302
0.000511783
0.000450439
0.000495426
0.000513273
0.000490364
0.000511848
0.000450498
0.000495491
0.000513707
0.000490791
0.000512289
0.000450899
0.00049593
0.000513854
0.000490936
0.000512439
0.000451035
0.00049608
0.000514793
0.000491863
0.000513395
0.000451906
0.000497028
0.000515048
0.000492114
0.000513653
0.000452141
0.000497287
0.000517026
0.00049408
0.000515657
0.000453994
0.000499278
0.000517358
0.000494407
0.000515991
0.000454298
0.000499612
0.00052214
0.000499243
0.000520804
0.000459001
0.000504576
-1.62441e-05
1.57816e-05
2.81617e-06
6.96752e-07
2.50913e-07
1.80703e-07
1.65292e-07
1.62494e-07
1.61806e-07
1.61662e-07
1.61615e-07
1.61593e-07
1.61495e-07
1.61386e-07
1.60519e-07
1.59851e-07
1.53415e-07
1.50644e-07
1.11916e-07
1.07812e-07
-1.63126e-05
1.57418e-05
2.8305e-06
7.01718e-07
2.52133e-07
1.81004e-07
1.65344e-07
1.62493e-07
1.61789e-07
1.61642e-07
1.61593e-07
1.61571e-07
1.61471e-07
1.61359e-07
1.60478e-07
1.59803e-07
1.53295e-07
1.50518e-07
1.11616e-07
1.076e-07
-1.63061e-05
1.57315e-05
2.82724e-06
7.01273e-07
2.52044e-07
1.80992e-07
1.65342e-07
1.62492e-07
1.61789e-07
1.61642e-07
1.61593e-07
1.61571e-07
1.61471e-07
1.61359e-07
1.60477e-07
1.59802e-07
1.53293e-07
1.50516e-07
1.11613e-07
1.07598e-07
-1.62763e-05
1.56788e-05
2.81089e-06
6.99085e-07
2.51617e-07
1.80936e-07
1.65329e-07
1.6249e-07
1.61788e-07
1.6164e-07
1.61592e-07
1.61569e-07
1.61469e-07
1.61357e-07
1.60475e-07
1.59799e-07
1.53286e-07
1.50509e-07
1.11601e-07
1.07592e-07
-1.62708e-05
1.56706e-05
2.808e-06
6.98633e-07
2.51515e-07
1.80919e-07
1.65325e-07
1.62489e-07
1.61787e-07
1.6164e-07
1.61592e-07
1.61569e-07
1.61469e-07
1.61357e-07
1.60475e-07
1.59799e-07
1.53286e-07
1.50509e-07
1.11601e-07
1.07591e-07
-1.62538e-05
1.5645e-05
2.79918e-06
6.97312e-07
2.51224e-07
1.80872e-07
1.65314e-07
1.62487e-07
1.61787e-07
1.6164e-07
1.61591e-07
1.61569e-07
1.61469e-07
1.61357e-07
1.60474e-07
1.59798e-07
1.53286e-07
1.50509e-07
1.11601e-07
1.07591e-07
-1.62507e-05
1.56403e-05
2.79753e-06
6.9705e-07
2.51164e-07
1.80862e-07
1.65312e-07
1.62486e-07
1.61787e-07
1.6164e-07
1.61591e-07
1.61569e-07
1.61469e-07
1.61357e-07
1.60474e-07
1.59798e-07
1.53286e-07
1.50509e-07
1.11601e-07
1.07591e-07
-1.62428e-05
1.56286e-05
2.79347e-06
6.96436e-07
2.51026e-07
1.80839e-07
1.65306e-07
1.62485e-07
1.61786e-07
1.6164e-07
1.61591e-07
1.61569e-07
1.61469e-07
1.61357e-07
1.60474e-07
1.59798e-07
1.53286e-07
1.50509e-07
1.11601e-07
1.07591e-07
-1.62414e-05
1.56266e-05
2.79276e-06
6.96323e-07
2.51e-07
1.80834e-07
1.65305e-07
1.62485e-07
1.61786e-07
1.6164e-07
1.61591e-07
1.61569e-07
1.61469e-07
1.61357e-07
1.60474e-07
1.59798e-07
1.53286e-07
1.50509e-07
1.11601e-07
1.07591e-07
-1.62391e-05
1.56232e-05
2.79159e-06
6.96145e-07
2.5096e-07
1.80828e-07
1.65303e-07
1.62485e-07
1.61786e-07
1.6164e-07
1.61591e-07
1.61569e-07
1.61469e-07
1.61357e-07
1.60474e-07
1.59798e-07
1.53286e-07
1.50509e-07
1.11601e-07
1.07591e-07
-1.62391e-05
1.56232e-05
2.79159e-06
6.96145e-07
2.5096e-07
1.80828e-07
1.65303e-07
1.62485e-07
1.61786e-07
1.6164e-07
1.61591e-07
1.61569e-07
1.61469e-07
1.61357e-07
1.60474e-07
1.59798e-07
1.53286e-07
1.50509e-07
1.11601e-07
1.07591e-07
-1.62414e-05
1.56266e-05
2.79276e-06
6.96323e-07
2.51e-07
1.80834e-07
1.65305e-07
1.62485e-07
1.61786e-07
1.6164e-07
1.61591e-07
1.61569e-07
1.61469e-07
1.61357e-07
1.60474e-07
1.59798e-07
1.53286e-07
1.50509e-07
1.11601e-07
1.07591e-07
-1.62428e-05
1.56286e-05
2.79347e-06
6.96436e-07
2.51026e-07
1.80839e-07
1.65306e-07
1.62485e-07
1.61786e-07
1.6164e-07
1.61591e-07
1.61569e-07
1.61469e-07
1.61357e-07
1.60474e-07
1.59798e-07
1.53286e-07
1.50509e-07
1.11601e-07
1.07591e-07
-1.62507e-05
1.56403e-05
2.79753e-06
6.9705e-07
2.51164e-07
1.80862e-07
1.65312e-07
1.62486e-07
1.61787e-07
1.6164e-07
1.61591e-07
1.61569e-07
1.61469e-07
1.61357e-07
1.60474e-07
1.59798e-07
1.53286e-07
1.50509e-07
1.11601e-07
1.07591e-07
-1.62538e-05
1.5645e-05
2.79918e-06
6.97312e-07
2.51224e-07
1.80872e-07
1.65314e-07
1.62487e-07
1.61787e-07
1.6164e-07
1.61591e-07
1.61569e-07
1.61469e-07
1.61357e-07
1.60474e-07
1.59798e-07
1.53286e-07
1.50509e-07
1.11601e-07
1.07591e-07
-1.62708e-05
1.56706e-05
2.808e-06
6.98633e-07
2.51515e-07
1.80919e-07
1.65325e-07
1.62489e-07
1.61787e-07
1.6164e-07
1.61592e-07
1.61569e-07
1.61469e-07
1.61357e-07
1.60475e-07
1.59799e-07
1.53286e-07
1.50509e-07
1.11601e-07
1.07591e-07
-1.62763e-05
1.56788e-05
2.81089e-06
6.99085e-07
2.51617e-07
1.80936e-07
1.65329e-07
1.6249e-07
1.61788e-07
1.6164e-07
1.61592e-07
1.61569e-07
1.61469e-07
1.61357e-07
1.60475e-07
1.59799e-07
1.53286e-07
1.50509e-07
1.11601e-07
1.07592e-07
-1.63061e-05
1.57315e-05
2.82724e-06
7.01273e-07
2.52044e-07
1.80992e-07
1.65342e-07
1.62492e-07
1.61789e-07
1.61642e-07
1.61593e-07
1.61571e-07
1.61471e-07
1.61359e-07
1.60477e-07
1.59802e-07
1.53293e-07
1.50516e-07
1.11613e-07
1.07598e-07
-1.63126e-05
1.57418e-05
2.8305e-06
7.01718e-07
2.52133e-07
1.81004e-07
1.65344e-07
1.62493e-07
1.61789e-07
1.61642e-07
1.61593e-07
1.61571e-07
1.61471e-07
1.61359e-07
1.60478e-07
1.59803e-07
1.53295e-07
1.50518e-07
1.11616e-07
1.076e-07
-1.62441e-05
1.57816e-05
2.81617e-06
6.96752e-07
2.50913e-07
1.80703e-07
1.65292e-07
1.62494e-07
1.61806e-07
1.61662e-07
1.61615e-07
1.61593e-07
1.61495e-07
1.61386e-07
1.60519e-07
1.59851e-07
1.53415e-07
1.50644e-07
1.11916e-07
1.07812e-07
-1.58597e-05
1.59519e-05
2.84155e-06
7.02169e-07
2.51859e-07
1.80923e-07
1.65317e-07
1.62588e-07
1.61897e-07
1.61751e-07
1.61703e-07
1.61681e-07
1.61582e-07
1.6147e-07
1.60564e-07
1.59833e-07
1.53333e-07
1.50537e-07
1.11321e-07
1.07188e-07
-1.59232e-05
1.59121e-05
2.85604e-06
7.07191e-07
2.53094e-07
1.81227e-07
1.65371e-07
1.62586e-07
1.6188e-07
1.61731e-07
1.61681e-07
1.61659e-07
1.61557e-07
1.61444e-07
1.60522e-07
1.59784e-07
1.53212e-07
1.50409e-07
1.11017e-07
1.06972e-07
-1.59165e-05
1.59016e-05
2.85276e-06
7.06742e-07
2.53004e-07
1.81215e-07
1.65368e-07
1.62586e-07
1.6188e-07
1.6173e-07
1.61681e-07
1.61658e-07
1.61557e-07
1.61444e-07
1.60521e-07
1.59783e-07
1.5321e-07
1.50407e-07
1.11014e-07
1.0697e-07
-1.58858e-05