/*--------------------------------*- C++ -*----------------------------------*\
  =========                 |
  \\      /  F ield         | OpenFOAM: The Open Source CFD Toolbox
   \\    /   O peration     | Website:  https://openfoam.org
    \\  /    A nd           | Version:  8
     \\/     M anipulation  |
\*---------------------------------------------------------------------------*/
FoamFile
{
    version     2.0;
    format      ascii;
    class       volScalarField;
    location    "2.9";
    object      H2;
}
// * * * * * * * * * * * * * * * * * * * * * * * * * * * * * * * * * * * * * //

dimensions      [0 1 -1 0 0 0 0];

internalField   nonuniform List<scalar> 
180000
(
-4.95235e-27
-1.02446e-22
-1.39683e-18
3.58475e-15
9.30618e-10
-5.07878e-27
-1.00948e-22
-1.21409e-18
1.12609e-14
1.15551e-09
-5.08589e-27
-1.01031e-22
-1.21318e-18
1.13446e-14
1.15812e-09
-5.10925e-27
-1.01311e-22
-1.21051e-18
1.16105e-14
1.16648e-09
-5.11094e-27
-1.01356e-22
-1.21171e-18
1.1576e-14
1.16545e-09
-5.11581e-27
-1.01492e-22
-1.21555e-18
1.14631e-14
1.16212e-09
-5.11639e-27
-1.01511e-22
-1.2162e-18
1.14422e-14
1.16149e-09
-5.11788e-27
-1.01561e-22
-1.21784e-18
1.13898e-14
1.15991e-09
-5.11808e-27
-1.01568e-22
-1.21808e-18
1.13818e-14
1.15967e-09
-5.11844e-27
-1.01581e-22
-1.2185e-18
1.13683e-14
1.15926e-09
-5.11844e-27
-1.01581e-22
-1.2185e-18
1.13683e-14
1.15926e-09
-5.11808e-27
-1.01568e-22
-1.21808e-18
1.13818e-14
1.15967e-09
-5.11788e-27
-1.01561e-22
-1.21784e-18
1.13898e-14
1.15991e-09
-5.11639e-27
-1.01511e-22
-1.2162e-18
1.14422e-14
1.16149e-09
-5.11581e-27
-1.01492e-22
-1.21555e-18
1.14631e-14
1.16212e-09
-5.11094e-27
-1.01356e-22
-1.21171e-18
1.1576e-14
1.16545e-09
-5.10925e-27
-1.01311e-22
-1.21051e-18
1.16105e-14
1.16648e-09
-5.08589e-27
-1.01031e-22
-1.21318e-18
1.13446e-14
1.15812e-09
-5.07878e-27
-1.00948e-22
-1.21409e-18
1.12609e-14
1.15551e-09
-4.95235e-27
-1.02446e-22
-1.39683e-18
3.58475e-15
9.30618e-10
-4.95232e-27
-1.02444e-22
-1.39654e-18
3.9232e-15
1.52004e-09
-5.07875e-27
-1.00945e-22
-1.21381e-18
1.16269e-14
1.79849e-09
-5.08586e-27
-1.01028e-22
-1.21289e-18
1.17106e-14
1.80127e-09
-5.10922e-27
-1.01309e-22
-1.21023e-18
1.19756e-14
1.8095e-09
-5.11091e-27
-1.01354e-22
-1.21143e-18
1.19406e-14
1.80789e-09
-5.11578e-27
-1.01489e-22
-1.21527e-18
1.18263e-14
1.80257e-09
-5.11636e-27
-1.01509e-22
-1.21592e-18
1.18052e-14
1.80162e-09
-5.11785e-27
-1.01559e-22
-1.21756e-18
1.17521e-14
1.79913e-09
-5.11805e-27
-1.01566e-22
-1.21781e-18
1.17441e-14
1.79876e-09
-5.11841e-27
-1.01578e-22
-1.21822e-18
1.17303e-14
1.7981e-09
-5.11841e-27
-1.01578e-22
-1.21822e-18
1.17303e-14
1.7981e-09
-5.11805e-27
-1.01566e-22
-1.21781e-18
1.17441e-14
1.79876e-09
-5.11785e-27
-1.01559e-22
-1.21756e-18
1.17521e-14
1.79913e-09
-5.11636e-27
-1.01509e-22
-1.21592e-18
1.18052e-14
1.80162e-09
-5.11578e-27
-1.01489e-22
-1.21527e-18
1.18263e-14
1.80257e-09
-5.11091e-27
-1.01354e-22
-1.21143e-18
1.19406e-14
1.80789e-09
-5.10922e-27
-1.01309e-22
-1.21023e-18
1.19756e-14
1.8095e-09
-5.08586e-27
-1.01028e-22
-1.21289e-18
1.17106e-14
1.80127e-09
-5.07875e-27
-1.00945e-22
-1.21381e-18
1.16269e-14
1.79849e-09
-4.95232e-27
-1.02444e-22
-1.39654e-18
3.9232e-15
1.52004e-09
-4.95229e-27
-1.02437e-22
-1.39402e-18
7.38054e-15
6.93462e-09
-5.07872e-27
-1.00939e-22
-1.21119e-18
1.52843e-14
7.55773e-09
-5.08583e-27
-1.01022e-22
-1.21028e-18
1.53671e-14
7.5609e-09
-5.10919e-27
-1.01302e-22
-1.20763e-18
1.56227e-14
7.56606e-09
-5.11089e-27
-1.01347e-22
-1.20883e-18
1.55843e-14
7.5604e-09
-5.11575e-27
-1.01483e-22
-1.21269e-18
1.54576e-14
7.54094e-09
-5.11633e-27
-1.01502e-22
-1.21334e-18
1.54345e-14
7.53771e-09
-5.11782e-27
-1.01552e-22
-1.21498e-18
1.53757e-14
7.52875e-09
-5.11802e-27
-1.01559e-22
-1.21523e-18
1.5367e-14
7.52748e-09
-5.11838e-27
-1.01572e-22
-1.21565e-18
1.53517e-14
7.52504e-09
-5.11838e-27
-1.01572e-22
-1.21565e-18
1.53517e-14
7.52504e-09
-5.11802e-27
-1.01559e-22
-1.21523e-18
1.5367e-14
7.52748e-09
-5.11782e-27
-1.01552e-22
-1.21498e-18
1.53757e-14
7.52875e-09
-5.11633e-27
-1.01502e-22
-1.21334e-18
1.54345e-14
7.53771e-09
-5.11575e-27
-1.01483e-22
-1.21269e-18
1.54576e-14
7.54094e-09
-5.11089e-27
-1.01347e-22
-1.20883e-18
1.55843e-14
7.5604e-09
-5.10919e-27
-1.01302e-22
-1.20763e-18
1.56227e-14
7.56606e-09
-5.08583e-27
-1.01022e-22
-1.21028e-18
1.53671e-14
7.5609e-09
-5.07872e-27
-1.00939e-22
-1.21119e-18
1.52843e-14
7.55773e-09
-4.95229e-27
-1.02437e-22
-1.39402e-18
7.38054e-15
6.93462e-09
-4.95224e-27
-1.02418e-22
-1.38147e-18
2.32714e-14
2.84961e-08
-5.07868e-27
-1.0092e-22
-1.19826e-18
3.18065e-14
3.00427e-08
-5.08579e-27
-1.01003e-22
-1.19736e-18
3.18835e-14
3.00451e-08
-5.10915e-27
-1.01283e-22
-1.19478e-18
3.20958e-14
3.00376e-08
-5.11085e-27
-1.01328e-22
-1.196e-18
3.20443e-14
3.00201e-08
-5.11571e-27
-1.01464e-22
-1.19991e-18
3.187e-14
2.99595e-08
-5.11629e-27
-1.01483e-22
-1.20056e-18
3.18397e-14
2.99496e-08
-5.11778e-27
-1.01533e-22
-1.20224e-18
3.17594e-14
2.99216e-08
-5.11798e-27
-1.01541e-22
-1.20248e-18
3.17477e-14
2.99176e-08
-5.11834e-27
-1.01553e-22
-1.20291e-18
3.17265e-14
2.99099e-08
-5.11834e-27
-1.01553e-22
-1.20291e-18
3.17265e-14
2.99099e-08
-5.11798e-27
-1.01541e-22
-1.20248e-18
3.17477e-14
2.99176e-08
-5.11778e-27
-1.01533e-22
-1.20224e-18
3.17594e-14
2.99216e-08
-5.11629e-27
-1.01483e-22
-1.20056e-18
3.18397e-14
2.99496e-08
-5.11571e-27
-1.01464e-22
-1.19991e-18
3.187e-14
2.99595e-08
-5.11085e-27
-1.01328e-22
-1.196e-18
3.20443e-14
3.00201e-08
-5.10915e-27
-1.01283e-22
-1.19478e-18
3.20958e-14
3.00376e-08
-5.08579e-27
-1.01003e-22
-1.19736e-18
3.18835e-14
3.00451e-08
-5.07868e-27
-1.0092e-22
-1.19826e-18
3.18065e-14
3.00427e-08
-4.95224e-27
-1.02418e-22
-1.38147e-18
2.32714e-14
2.84961e-08
-4.95217e-27
-1.0237e-22
-1.34021e-18
6.89558e-14
8.01035e-08
-5.07861e-27
-1.00871e-22
-1.15617e-18
7.86803e-14
8.3033e-08
-5.08572e-27
-1.00954e-22
-1.1553e-18
7.87379e-14
8.30301e-08
-5.10908e-27
-1.01235e-22
-1.15295e-18
7.88254e-14
8.29901e-08
-5.11078e-27
-1.0128e-22
-1.15421e-18
7.8742e-14
8.29517e-08
-5.11564e-27
-1.01416e-22
-1.15828e-18
7.84521e-14
8.28196e-08
-5.11622e-27
-1.01436e-22
-1.15896e-18
7.84042e-14
8.2798e-08
-5.11771e-27
-1.01486e-22
-1.1607e-18
7.82713e-14
8.27366e-08
-5.11791e-27
-1.01493e-22
-1.16096e-18
7.82525e-14
8.27279e-08
-5.11827e-27
-1.01505e-22
-1.1614e-18
7.82165e-14
8.27108e-08
-5.11827e-27
-1.01505e-22
-1.1614e-18
7.82165e-14
8.27108e-08
-5.11791e-27
-1.01493e-22
-1.16096e-18
7.82525e-14
8.27279e-08
-5.11771e-27
-1.01486e-22
-1.1607e-18
7.82713e-14
8.27366e-08
-5.11622e-27
-1.01436e-22
-1.15896e-18
7.84042e-14
8.2798e-08
-5.11564e-27
-1.01416e-22
-1.15828e-18
7.84521e-14
8.28196e-08
-5.11078e-27
-1.0128e-22
-1.15421e-18
7.8742e-14
8.29517e-08
-5.10908e-27
-1.01235e-22
-1.15295e-18
7.88254e-14
8.29901e-08
-5.08572e-27
-1.00954e-22
-1.1553e-18
7.87379e-14
8.30301e-08
-5.07861e-27
-1.00871e-22
-1.15617e-18
7.86803e-14
8.3033e-08
-4.95217e-27
-1.0237e-22
-1.34021e-18
6.89558e-14
8.01035e-08
-4.95202e-27
-1.02255e-22
-1.23748e-18
1.66805e-13
1.70355e-07
-5.07846e-27
-1.00756e-22
-1.05225e-18
1.78074e-13
1.74627e-07
-5.08558e-27
-1.00839e-22
-1.05148e-18
1.78086e-13
1.74609e-07
-5.10894e-27
-1.01121e-22
-1.04969e-18
1.77899e-13
1.74498e-07
-5.11063e-27
-1.01166e-22
-1.05105e-18
1.77756e-13
1.74431e-07
-5.1155e-27
-1.01303e-22
-1.05549e-18
1.77248e-13
1.74203e-07
-5.11608e-27
-1.01322e-22
-1.05622e-18
1.77167e-13
1.74166e-07
-5.11757e-27
-1.01372e-22
-1.05813e-18
1.76935e-13
1.74059e-07
-5.11777e-27
-1.0138e-22
-1.05841e-18
1.76903e-13
1.74044e-07
-5.11813e-27
-1.01392e-22
-1.0589e-18
1.76839e-13
1.74015e-07
-5.11813e-27
-1.01392e-22
-1.0589e-18
1.76839e-13
1.74015e-07
-5.11777e-27
-1.0138e-22
-1.05841e-18
1.76903e-13
1.74044e-07
-5.11757e-27
-1.01372e-22
-1.05813e-18
1.76935e-13
1.74059e-07
-5.11608e-27
-1.01322e-22
-1.05622e-18
1.77167e-13
1.74166e-07
-5.1155e-27
-1.01303e-22
-1.05549e-18
1.77248e-13
1.74203e-07
-5.11063e-27
-1.01166e-22
-1.05105e-18
1.77756e-13
1.74431e-07
-5.10894e-27
-1.01121e-22
-1.04969e-18
1.77899e-13
1.74498e-07
-5.08558e-27
-1.00839e-22
-1.05148e-18
1.78086e-13
1.74609e-07
-5.07846e-27
-1.00756e-22
-1.05225e-18
1.78074e-13
1.74627e-07
-4.95202e-27
-1.02255e-22
-1.23748e-18
1.66804e-13
1.70355e-07
-4.95172e-27
-1.02007e-22
-1.02573e-18
3.40305e-13
3.01081e-07
-5.07816e-27
-1.00509e-22
-8.3951e-19
3.52997e-13
3.06195e-07
-5.08528e-27
-1.00593e-22
-8.38928e-19
3.52921e-13
3.06149e-07
-5.10864e-27
-1.00876e-22
-8.38327e-19
3.5222e-13
3.05895e-07
-5.11034e-27
-1.00921e-22
-8.39876e-19
3.51981e-13
3.05794e-07
-5.1152e-27
-1.01059e-22
-8.4503e-19
3.51118e-13
3.05447e-07
-5.11578e-27
-1.01078e-22
-8.45868e-19
3.50985e-13
3.05391e-07
-5.11728e-27
-1.01129e-22
-8.48099e-19
3.50592e-13
3.05229e-07
-5.11748e-27
-1.01136e-22
-8.48419e-19
3.50539e-13
3.05206e-07
-5.11783e-27
-1.01149e-22
-8.49002e-19
3.5043e-13
3.05161e-07
-5.11783e-27
-1.01149e-22
-8.49002e-19
3.5043e-13
3.05161e-07
-5.11748e-27
-1.01136e-22
-8.48419e-19
3.50539e-13
3.05206e-07
-5.11728e-27
-1.01129e-22
-8.48099e-19
3.50592e-13
3.05229e-07
-5.11578e-27
-1.01078e-22
-8.45868e-19
3.50985e-13
3.05391e-07
-5.1152e-27
-1.01059e-22
-8.4503e-19
3.51118e-13
3.05447e-07
-5.11034e-27
-1.00921e-22
-8.39876e-19
3.51981e-13
3.05794e-07
-5.10864e-27
-1.00876e-22
-8.38327e-19
3.5222e-13
3.05895e-07
-5.08528e-27
-1.00593e-22
-8.38927e-19
3.52921e-13
3.06149e-07
-5.07816e-27
-1.00509e-22
-8.3951e-19
3.52997e-13
3.06195e-07
-4.95172e-27
-1.02007e-22
-1.02573e-18
3.40305e-13
3.01081e-07
-4.9511e-27
-1.01523e-22
-6.43154e-19
6.12097e-13
4.70702e-07
-5.07755e-27
-1.00027e-22
-4.57193e-19
6.2547e-13
4.75921e-07
-5.08467e-27
-1.00111e-22
-4.56971e-19
6.25248e-13
4.75829e-07
-5.10804e-27
-1.00398e-22
-4.5855e-19
6.2369e-13
4.75331e-07
-5.10974e-27
-1.00444e-22
-4.60428e-19
6.23309e-13
4.75188e-07
-5.11461e-27
-1.00583e-22
-4.66835e-19
6.21916e-13
4.7469e-07
-5.11519e-27
-1.00603e-22
-4.67851e-19
6.21705e-13
4.74611e-07
-5.11669e-27
-1.00655e-22
-4.70641e-19
6.21074e-13
4.7438e-07
-5.11688e-27
-1.00662e-22
-4.71033e-19
6.20989e-13
4.74348e-07
-5.11724e-27
-1.00675e-22
-4.71775e-19
6.20812e-13
4.74283e-07
-5.11724e-27
-1.00675e-22
-4.71775e-19
6.20812e-13
4.74283e-07
-5.11688e-27
-1.00662e-22
-4.71033e-19
6.20989e-13
4.74348e-07
-5.11669e-27
-1.00655e-22
-4.70641e-19
6.21074e-13
4.7438e-07
-5.11519e-27
-1.00603e-22
-4.67851e-19
6.21705e-13
4.74611e-07
-5.11461e-27
-1.00583e-22
-4.66835e-19
6.21916e-13
4.7469e-07
-5.10974e-27
-1.00444e-22
-4.60428e-19
6.23309e-13
4.75188e-07
-5.10804e-27
-1.00398e-22
-4.5855e-19
6.2369e-13
4.75331e-07
-5.08467e-27
-1.00111e-22
-4.56971e-19
6.25248e-13
4.75829e-07
-5.07755e-27
-1.00027e-22
-4.57192e-19
6.2547e-13
4.75921e-07
-4.9511e-27
-1.01523e-22
-6.43154e-19
6.12097e-13
4.70702e-07
-4.94993e-27
-1.0065e-22
-1.44093e-20
1.00358e-12
6.76968e-07
-5.0764e-27
-9.91628e-23
1.68391e-19
1.01622e-12
6.81452e-07
-5.08353e-27
-9.92478e-23
1.68002e-19
1.01577e-12
6.81292e-07
-5.10691e-27
-9.9542e-23
1.62759e-19
1.0129e-12
6.80416e-07
-5.10861e-27
-9.95885e-23
1.60358e-19
1.01232e-12
6.80221e-07
-5.11348e-27
-9.97318e-23
1.51941e-19
1.01017e-12
6.79528e-07
-5.11406e-27
-9.97523e-23
1.50644e-19
1.00986e-12
6.79421e-07
-5.11556e-27
-9.98057e-23
1.46957e-19
1.00889e-12
6.79103e-07
-5.11576e-27
-9.98132e-23
1.46449e-19
1.00876e-12
6.7906e-07
-5.11612e-27
-9.98265e-23
1.45455e-19
1.00849e-12
6.7897e-07
-5.11612e-27
-9.98265e-23
1.45455e-19
1.00849e-12
6.7897e-07
-5.11576e-27
-9.98132e-23
1.46449e-19
1.00876e-12
6.7906e-07
-5.11556e-27
-9.98057e-23
1.46957e-19
1.00889e-12
6.79103e-07
-5.11406e-27
-9.97523e-23
1.50644e-19
1.00986e-12
6.79421e-07
-5.11348e-27
-9.97318e-23
1.51941e-19
1.01017e-12
6.79528e-07
-5.10861e-27
-9.95885e-23
1.60358e-19
1.01232e-12
6.80221e-07
-5.10691e-27
-9.9542e-23
1.62759e-19
1.0129e-12
6.80416e-07
-5.08353e-27
-9.92478e-23
1.68002e-19
1.01577e-12
6.81292e-07
-5.0764e-27
-9.91628e-23
1.68391e-19
1.01622e-12
6.81452e-07
-4.94993e-27
-1.0065e-22
-1.44094e-20
1.00358e-12
6.76968e-07
-4.94783e-27
-9.91851e-23
9.48411e-19
1.53472e-12
9.17368e-07
-5.07433e-27
-9.77171e-23
1.12293e-18
1.5445e-12
9.20184e-07
-5.08146e-27
-9.7804e-23
1.12158e-18
1.54373e-12
9.19933e-07
-5.10487e-27
-9.811e-23
1.11059e-18
1.53893e-12
9.18518e-07
-5.10657e-27
-9.81581e-23
1.1074e-18
1.53809e-12
9.1826e-07
-5.11146e-27
-9.83076e-23
1.09595e-18
1.53492e-12
9.17315e-07
-5.11204e-27
-9.83289e-23
1.09423e-18
1.53446e-12
9.17174e-07
-5.11354e-27
-9.8385e-23
1.08919e-18
1.53304e-12
9.16745e-07
-5.11374e-27
-9.83928e-23
1.08851e-18
1.53285e-12
9.16688e-07
-5.1141e-27
-9.8407e-23
1.08713e-18
1.53245e-12
9.16566e-07
-5.1141e-27
-9.8407e-23
1.08713e-18
1.53245e-12
9.16566e-07
-5.11374e-27
-9.83928e-23
1.08851e-18
1.53285e-12
9.16688e-07
-5.11354e-27
-9.8385e-23
1.08919e-18
1.53304e-12
9.16745e-07
-5.11204e-27
-9.83289e-23
1.09423e-18
1.53446e-12
9.17174e-07
-5.11146e-27
-9.83076e-23
1.09595e-18
1.53492e-12
9.17315e-07
-5.10657e-27
-9.81581e-23
1.1074e-18
1.53809e-12
9.1826e-07
-5.10487e-27
-9.811e-23
1.11059e-18
1.53893e-12
9.18518e-07
-5.08146e-27
-9.7804e-23
1.12158e-18
1.54373e-12
9.19933e-07
-5.07433e-27
-9.77171e-23
1.12293e-18
1.5445e-12
9.20184e-07
-4.94783e-27
-9.91851e-23
9.48411e-19
1.53472e-12
9.17368e-07
-4.94428e-27
-9.69249e-23
2.24411e-18
2.06432e-12
9.15057e-07
-5.07085e-27
-9.54916e-23
2.40521e-18
2.07126e-12
9.17934e-07
-5.078e-27
-9.55815e-23
2.40257e-18
2.07017e-12
9.17687e-07
-5.10144e-27
-9.5906e-23
2.38376e-18
2.06348e-12
9.16294e-07
-5.10315e-27
-9.59565e-23
2.37954e-18
2.06237e-12
9.16038e-07
-5.10805e-27
-9.61154e-23
2.36402e-18
2.05819e-12
9.15104e-07
-5.10863e-27
-9.61381e-23
2.36174e-18
2.05759e-12
9.14964e-07
-5.11015e-27
-9.61984e-23
2.3549e-18
2.05572e-12
9.1454e-07
-5.11035e-27
-9.62067e-23
2.35399e-18
2.05547e-12
9.14483e-07
-5.11071e-27
-9.6222e-23
2.35211e-18
2.05495e-12
9.14363e-07
-5.11071e-27
-9.6222e-23
2.35211e-18
2.05495e-12
9.14363e-07
-5.11035e-27
-9.62067e-23
2.35399e-18
2.05547e-12
9.14483e-07
-5.11015e-27
-9.61984e-23
2.3549e-18
2.05572e-12
9.1454e-07
-5.10863e-27
-9.61381e-23
2.36174e-18
2.05759e-12
9.14964e-07
-5.10805e-27
-9.61154e-23
2.36402e-18
2.05819e-12
9.15104e-07
-5.10315e-27
-9.59565e-23
2.37954e-18
2.06237e-12
9.16038e-07
-5.10144e-27
-9.5906e-23
2.38376e-18
2.06348e-12
9.16294e-07
-5.078e-27
-9.55815e-23
2.40257e-18
2.07017e-12
9.17687e-07
-5.07085e-27
-9.54916e-23
2.40521e-18
2.07126e-12
9.17934e-07
-4.94428e-27
-9.69249e-23
2.24411e-18
2.06432e-12
9.15057e-07
-4.93864e-27
-9.36667e-23
3.87144e-18
2.59238e-12
9.12814e-07
-5.06535e-27
-9.2289e-23
4.01399e-18
2.59649e-12
9.1575e-07
-5.07251e-27
-9.23833e-23
4.00972e-18
2.59509e-12
9.15506e-07
-5.096e-27
-9.27346e-23
3.98105e-18
2.58651e-12
9.14134e-07
-5.09772e-27
-9.27886e-23
3.97554e-18
2.58515e-12
9.13881e-07
-5.10266e-27
-9.29611e-23
3.95495e-18
2.57997e-12
9.12957e-07
-5.10324e-27
-9.29856e-23
3.95198e-18
2.57923e-12
9.12818e-07
-5.10477e-27
-9.30519e-23
3.94288e-18
2.5769e-12
9.12398e-07
-5.10497e-27
-9.3061e-23
3.94169e-18
2.5766e-12
9.12342e-07
-5.10534e-27
-9.3078e-23
3.93917e-18
2.57595e-12
9.12223e-07
-5.10534e-27
-9.3078e-23
3.93917e-18
2.57595e-12
9.12223e-07
-5.10497e-27
-9.3061e-23
3.94169e-18
2.5766e-12
9.12342e-07
-5.10477e-27
-9.30519e-23
3.94288e-18
2.5769e-12
9.12398e-07
-5.10324e-27
-9.29856e-23
3.95198e-18
2.57923e-12
9.12818e-07
-5.10266e-27
-9.29611e-23
3.95495e-18
2.57997e-12
9.12957e-07
-5.09772e-27
-9.27886e-23
3.97554e-18
2.58515e-12
9.13881e-07
-5.096e-27
-9.27346e-23
3.98105e-18
2.58651e-12
9.14134e-07
-5.07251e-27
-9.23833e-23
4.00972e-18
2.59509e-12
9.15506e-07
-5.06535e-27
-9.22889e-23
4.01399e-18
2.59649e-12
9.1575e-07
-4.93864e-27
-9.36667e-23
3.87144e-18
2.59238e-12
9.12814e-07
-4.93015e-27
-8.92089e-23
5.82905e-18
3.11881e-12
9.10633e-07
-5.05707e-27
-8.79127e-23
5.94791e-18
3.12011e-12
9.13625e-07
-5.06425e-27
-8.80131e-23
5.94168e-18
3.1184e-12
9.13386e-07
-5.08783e-27
-8.84014e-23
5.90114e-18
3.10796e-12
9.12034e-07
-5.08956e-27
-8.846e-23
5.89408e-18
3.10635e-12
9.11783e-07
-5.09454e-27
-8.86511e-23
5.86742e-18
3.10017e-12
9.10868e-07
-5.09514e-27
-8.86781e-23
5.86362e-18
3.09929e-12
9.10731e-07
-5.09668e-27
-8.87525e-23
5.85183e-18
3.09652e-12
9.10315e-07
-5.09689e-27
-8.87627e-23
5.8503e-18
3.09616e-12
9.10259e-07
-5.09726e-27
-8.8782e-23
5.84701e-18
3.09538e-12
9.10142e-07
-5.09726e-27
-8.8782e-23
5.84701e-18
3.09538e-12
9.10142e-07
-5.09689e-27
-8.87627e-23
5.8503e-18
3.09616e-12
9.10259e-07
-5.09668e-27
-8.87525e-23
5.85183e-18
3.09652e-12
9.10315e-07
-5.09514e-27
-8.86781e-23
5.86362e-18
3.09929e-12
9.10731e-07
-5.09454e-27
-8.86511e-23
5.86742e-18
3.10017e-12
9.10868e-07
-5.08956e-27
-8.846e-23
5.89408e-18
3.10635e-12
9.11783e-07
-5.08783e-27
-8.84014e-23
5.90114e-18
3.10796e-12
9.12034e-07
-5.06425e-27
-8.80131e-23
5.94168e-18
3.1184e-12
9.13386e-07
-5.05707e-27
-8.79127e-23
5.94791e-18
3.12011e-12
9.13625e-07
-4.93015e-27
-8.92089e-23
5.82905e-18
3.11881e-12
9.10633e-07
-4.9179e-27
-8.33511e-23
8.11552e-18
3.64355e-12
9.08509e-07
-5.04514e-27
-8.21676e-23
8.20554e-18
3.64205e-12
9.11556e-07
-5.05235e-27
-8.22758e-23
8.19703e-18
3.64004e-12
9.1132e-07
-5.07607e-27
-8.27129e-23
8.14262e-18
3.62776e-12
9.09987e-07
-5.07781e-27
-8.27776e-23
8.13378e-18
3.62589e-12
9.09739e-07
-5.08286e-27
-8.29929e-23
8.10004e-18
3.61872e-12
9.08833e-07
-5.08346e-27
-8.30232e-23
8.09529e-18
3.61771e-12
9.08697e-07
-5.08503e-27
-8.31084e-23
8.08036e-18
3.6145e-12
9.08286e-07
-5.08524e-27
-8.31199e-23
8.07844e-18
3.61409e-12
9.0823e-07
-5.08562e-27
-8.31423e-23
8.07427e-18
3.61318e-12
9.08114e-07
-5.08562e-27
-8.31423e-23
8.07427e-18
3.61318e-12
9.08114e-07
-5.08524e-27
-8.31199e-23
8.07844e-18
3.61409e-12
9.0823e-07
-5.08503e-27
-8.31084e-23
8.08036e-18
3.6145e-12
9.08286e-07
-5.08346e-27
-8.30232e-23
8.09529e-18
3.61771e-12
9.08697e-07
-5.08286e-27
-8.29929e-23
8.10004e-18
3.61872e-12
9.08833e-07
-5.07781e-27
-8.27776e-23
8.13378e-18
3.62589e-12
9.09739e-07
-5.07607e-27
-8.27129e-23
8.14262e-18
3.62776e-12
9.09987e-07
-5.05235e-27
-8.22758e-23
8.19703e-18
3.64004e-12
9.1132e-07
-5.04514e-27
-8.21675e-23
8.20554e-18
3.64205e-12
9.11556e-07
-4.9179e-27
-8.33511e-23
8.11552e-18
3.64355e-12
9.08509e-07
-4.90087e-27
-7.58937e-23
1.07293e-17
4.1665e-12
9.06438e-07
-5.02858e-27
-7.48592e-23
1.07853e-17
4.16223e-12
9.09538e-07
-5.03582e-27
-7.49776e-23
1.07742e-17
4.15992e-12
9.09305e-07
-5.05972e-27
-7.54767e-23
1.0704e-17
4.14582e-12
9.07991e-07
-5.06149e-27
-7.55492e-23
1.06931e-17
4.1437e-12
9.07745e-07
-5.06662e-27
-7.57953e-23
1.06514e-17
4.13556e-12
9.06848e-07
-5.06723e-27
-7.58297e-23
1.06455e-17
4.13441e-12
9.06714e-07
-5.06885e-27
-7.59286e-23
1.0627e-17
4.13076e-12
9.06306e-07
-5.06906e-27
-7.59418e-23
1.06246e-17
4.13029e-12
9.06251e-07
-5.06945e-27
-7.5968e-23
1.06195e-17
4.12926e-12
9.06136e-07
-5.06945e-27
-7.5968e-23
1.06195e-17
4.12926e-12
9.06136e-07
-5.06906e-27
-7.59418e-23
1.06246e-17
4.13029e-12
9.06251e-07
-5.06885e-27
-7.59286e-23
1.0627e-17
4.13076e-12
9.06306e-07
-5.06723e-27
-7.58297e-23
1.06455e-17
4.13441e-12
9.06714e-07
-5.06662e-27
-7.57953e-23
1.06514e-17
4.13556e-12
9.06848e-07
-5.06149e-27
-7.55492e-23
1.06931e-17
4.1437e-12
9.07745e-07
-5.05972e-27
-7.54767e-23
1.0704e-17
4.14582e-12
9.07991e-07
-5.03582e-27
-7.49776e-23
1.07742e-17
4.15992e-12
9.09305e-07
-5.02858e-27
-7.48592e-23
1.07853e-17
4.16223e-12
9.09538e-07
-4.90087e-27
-7.58937e-23
1.07293e-17
4.1665e-12
9.06438e-07
-4.87789e-27
-6.66383e-23
1.36689e-17
4.6876e-12
9.04416e-07
-5.00625e-27
-6.57945e-23
1.36857e-17
4.68057e-12
9.07566e-07
-5.01354e-27
-6.59255e-23
1.36717e-17
4.67796e-12
9.07338e-07
-5.03769e-27
-6.65017e-23
1.35837e-17
4.66207e-12
9.06042e-07
-5.03949e-27
-6.65837e-23
1.35706e-17
4.6597e-12
9.05798e-07
-5.04474e-27
-6.6868e-23
1.35198e-17
4.65059e-12
9.04909e-07
-5.04537e-27
-6.69075e-23
1.35128e-17
4.64931e-12
9.04776e-07
-5.04704e-27
-6.70232e-23
1.34902e-17
4.64523e-12
9.04373e-07
-5.04726e-27
-6.70385e-23
1.34874e-17
4.6447e-12
9.04318e-07
-5.04766e-27
-6.70694e-23
1.34811e-17
4.64355e-12
9.04204e-07
-5.04766e-27
-6.70694e-23
1.34811e-17
4.64355e-12
9.04204e-07
-5.04726e-27
-6.70385e-23
1.34874e-17
4.6447e-12
9.04318e-07
-5.04704e-27
-6.70232e-23
1.34902e-17
4.64523e-12
9.04373e-07
-5.04537e-27
-6.69075e-23
1.35128e-17
4.64931e-12
9.04776e-07
-5.04474e-27
-6.6868e-23
1.35198e-17
4.65059e-12
9.04909e-07
-5.03949e-27
-6.65837e-23
1.35706e-17
4.6597e-12
9.05798e-07
-5.03769e-27
-6.65017e-23
1.35837e-17
4.66207e-12
9.06042e-07
-5.01354e-27
-6.59255e-23
1.36717e-17
4.67796e-12
9.07338e-07
-5.00625e-27
-6.57945e-23
1.36857e-17
4.68057e-12
9.07566e-07
-4.87789e-27
-6.66383e-23
1.36689e-17
4.6876e-12
9.04416e-07
-4.84769e-27
-5.53877e-23
1.69326e-17
5.20675e-12
9.02439e-07
-4.97692e-27
-5.47817e-23
1.6905e-17
5.19698e-12
9.05639e-07
-4.98427e-27
-5.49279e-23
1.68878e-17
5.19408e-12
9.05413e-07
-5.00874e-27
-5.55977e-23
1.67802e-17
5.17642e-12
9.04135e-07
-5.01058e-27
-5.56912e-23
1.67646e-17
5.17381e-12
9.03894e-07
-5.01599e-27
-5.60219e-23
1.67038e-17
5.16374e-12
9.03013e-07
-5.01664e-27
-5.60675e-23
1.66954e-17
5.16232e-12
9.02881e-07
-5.01838e-27
-5.62037e-23
1.66684e-17
5.15782e-12
9.02481e-07
-5.01861e-27
-5.62214e-23
1.6665e-17
5.15724e-12
9.02428e-07
-5.01903e-27
-5.62582e-23
1.66575e-17
5.15597e-12
9.02315e-07
-5.01903e-27
-5.62582e-23
1.66575e-17
5.15597e-12
9.02315e-07
-5.01861e-27
-5.62214e-23
1.6665e-17
5.15724e-12
9.02428e-07
-5.01838e-27
-5.62037e-23
1.66684e-17
5.15782e-12
9.02481e-07
-5.01664e-27
-5.60675e-23
1.66954e-17
5.16232e-12
9.02881e-07
-5.01599e-27
-5.60219e-23
1.67038e-17
5.16374e-12
9.03013e-07
-5.01058e-27
-5.56912e-23
1.67646e-17
5.17381e-12
9.03894e-07
-5.00874e-27
-5.55977e-23
1.67802e-17
5.17642e-12
9.04135e-07
-4.98427e-27
-5.49279e-23
1.68878e-17
5.19408e-12
9.05413e-07
-4.97692e-27
-5.47817e-23
1.6905e-17
5.19698e-12
9.05639e-07
-4.84769e-27
-5.53877e-23
1.69326e-17
5.20675e-12
9.02439e-07
-4.80883e-27
-4.19459e-23
2.05186e-17
5.72388e-12
9.00502e-07
-4.93922e-27
-4.163e-23
2.04415e-17
5.71138e-12
9.0375e-07
-4.94664e-27
-4.17944e-23
2.04207e-17
5.7082e-12
9.03528e-07
-4.97154e-27
-4.2576e-23
2.02916e-17
5.68879e-12
9.02267e-07
-4.97343e-27
-4.26831e-23
2.02732e-17
5.68594e-12
9.02028e-07
-4.97904e-27
-4.3069e-23
2.02015e-17
5.67491e-12
9.01155e-07
-4.97972e-27
-4.31218e-23
2.01917e-17
5.67337e-12
9.01025e-07
-4.98155e-27
-4.32825e-23
2.01599e-17
5.66844e-12
9.00628e-07
-4.98178e-27
-4.33032e-23
2.01559e-17
5.66781e-12
9.00575e-07
-4.98223e-27
-4.33468e-23
2.01469e-17
5.66642e-12
9.00463e-07
-4.98223e-27
-4.33468e-23
2.01469e-17
5.66642e-12
9.00463e-07
-4.98178e-27
-4.33032e-23
2.01559e-17
5.66781e-12
9.00575e-07
-4.98155e-27
-4.32825e-23
2.01599e-17
5.66844e-12
9.00628e-07
-4.97972e-27
-4.31218e-23
2.01917e-17
5.67337e-12
9.01025e-07
-4.97904e-27
-4.3069e-23
2.02015e-17
5.67491e-12
9.01155e-07
-4.97343e-27
-4.26831e-23
2.02732e-17
5.68594e-12
9.02028e-07
-4.97154e-27
-4.2576e-23
2.02916e-17
5.68879e-12
9.02267e-07
-4.94664e-27
-4.17943e-23
2.04207e-17
5.7082e-12
9.03528e-07
-4.93922e-27
-4.163e-23
2.04415e-17
5.71138e-12
9.0375e-07
-4.80883e-27
-4.19459e-23
2.05186e-17
5.72388e-12
9.00502e-07
-4.75978e-27
-2.61181e-23
2.44252e-17
6.23887e-12
8.98598e-07
-4.89166e-27
-2.61502e-23
2.42932e-17
6.22367e-12
9.01892e-07
-4.89917e-27
-2.63358e-23
2.42687e-17
6.22021e-12
9.01673e-07
-4.9246e-27
-2.72488e-23
2.41162e-17
6.19908e-12
9.00429e-07
-4.92655e-27
-2.7372e-23
2.40949e-17
6.19599e-12
9.00192e-07
-4.93242e-27
-2.78227e-23
2.40113e-17
6.18403e-12
8.99327e-07
-4.93313e-27
-2.7884e-23
2.39999e-17
6.18236e-12
8.99198e-07
-4.93507e-27
-2.80733e-23
2.39628e-17
6.17701e-12
8.98805e-07
-4.93532e-27
-2.80975e-23
2.39582e-17
6.17633e-12
8.98752e-07
-4.93581e-27
-2.81493e-23
2.39477e-17
6.17482e-12
8.98641e-07
-4.93581e-27
-2.81493e-23
2.39477e-17
6.17482e-12
8.98641e-07
-4.93532e-27
-2.80975e-23
2.39582e-17
6.17633e-12
8.98752e-07
-4.93507e-27
-2.80733e-23
2.39628e-17
6.17701e-12
8.98805e-07
-4.93313e-27
-2.7884e-23
2.39999e-17
6.18236e-12
8.99198e-07
-4.93242e-27
-2.78227e-23
2.40113e-17
6.18403e-12
8.99327e-07
-4.92655e-27
-2.7372e-23
2.40949e-17
6.19599e-12
9.00192e-07
-4.92459e-27
-2.72488e-23
2.41162e-17
6.19908e-12
9.00429e-07
-4.89917e-27
-2.63358e-23
2.42687e-17
6.22021e-12
9.01673e-07
-4.89165e-27
-2.61502e-23
2.42932e-17
6.22367e-12
9.01892e-07
-4.75978e-27
-2.61181e-23
2.44252e-17
6.23887e-12
8.98598e-07
-4.69885e-27
-7.71069e-24
2.86503e-17
6.75164e-12
8.96693e-07
-4.83261e-27
-8.15412e-24
2.84583e-17
6.73375e-12
9.00034e-07
-4.84024e-27
-8.36447e-24
2.84297e-17
6.73001e-12
8.99818e-07
-4.86633e-27
-9.42993e-24
2.82521e-17
6.70719e-12
8.9859e-07
-4.86836e-27
-9.57163e-24
2.82276e-17
6.70387e-12
8.98355e-07
-4.87455e-27
-1.00975e-23
2.81312e-17
6.69098e-12
8.97499e-07
-4.8753e-27
-1.01688e-23
2.81181e-17
6.68919e-12
8.9737e-07
-4.87738e-27
-1.03913e-23
2.80754e-17
6.68342e-12
8.96981e-07
-4.87765e-27
-1.04196e-23
2.807e-17
6.68269e-12
8.96929e-07
-4.87817e-27
-1.04807e-23
2.8058e-17
6.68106e-12
8.96819e-07
-4.87817e-27
-1.04807e-23
2.8058e-17
6.68106e-12
8.96819e-07
-4.87765e-27
-1.04196e-23
2.807e-17
6.68269e-12
8.96929e-07
-4.87738e-27
-1.03913e-23
2.80754e-17
6.68342e-12
8.96981e-07
-4.8753e-27
-1.01688e-23
2.81181e-17
6.68919e-12
8.9737e-07
-4.87455e-27
-1.00975e-23
2.81312e-17
6.69098e-12
8.97499e-07
-4.86836e-27
-9.57163e-24
2.82276e-17
6.70387e-12
8.98355e-07
-4.86633e-27
-9.42992e-24
2.82521e-17
6.70719e-12
8.9859e-07
-4.84024e-27
-8.36445e-24
2.84297e-17
6.73001e-12
8.99818e-07
-4.83261e-27
-8.15409e-24
2.84583e-17
6.73375e-12
9.00034e-07
-4.69885e-27
-7.7107e-24
2.86503e-17
6.75164e-12
8.96693e-07
7.72256e-05
7.97323e-06
3.53324e-08
-1.58526e-09
-5.26888e-12
7.41033e-15
1.03499e-14
1.03855e-14
1.03932e-14
1.03945e-14
1.03952e-14
1.04e-14
1.04248e-14
1.04552e-14
1.07066e-14
1.09228e-14
1.32005e-14
1.44392e-14
4.6003e-14
5.37978e-14
8.86518e-05
9.67053e-06
7.75865e-08
-1.4491e-09
-5.55527e-12
7.07202e-15
1.03487e-14
1.03851e-14
1.0393e-14
1.03943e-14
1.03947e-14
1.03986e-14
1.04239e-14
1.04548e-14
1.07104e-14
1.09292e-14
1.32364e-14
1.44832e-14
4.64094e-14
5.4294e-14
8.87665e-05
9.68472e-06
7.78793e-08
-1.44698e-09
-5.55241e-12
7.07174e-15
1.03487e-14
1.03852e-14
1.0393e-14
1.03943e-14
1.03947e-14
1.03987e-14
1.0424e-14
1.04549e-14
1.07106e-14
1.09295e-14
1.32371e-14
1.4484e-14
4.64134e-14
5.4298e-14
8.91354e-05
9.71887e-06
7.83933e-08
-1.43539e-09
-5.51239e-12
7.09139e-15
1.03487e-14
1.03852e-14
1.0393e-14
1.03943e-14
1.03948e-14
1.03991e-14
1.04245e-14
1.04554e-14
1.07114e-14
1.09304e-14
1.32394e-14
1.44865e-14
4.64259e-14
5.43091e-14
8.90688e-05
9.70849e-06
7.8107e-08
-1.4361e-09
-5.50952e-12
7.09387e-15
1.03487e-14
1.03852e-14
1.0393e-14
1.03943e-14
1.03948e-14
1.03991e-14
1.04245e-14
1.04554e-14
1.07114e-14
1.09304e-14
1.32395e-14
1.44866e-14
4.64262e-14
5.43093e-14
8.88615e-05
9.67163e-06
7.70771e-08
-1.43809e-09
-5.49756e-12
7.10351e-15
1.03487e-14
1.03852e-14
1.0393e-14
1.03943e-14
1.03948e-14
1.03991e-14
1.04245e-14
1.04554e-14
1.07115e-14
1.09305e-14
1.32396e-14
1.44867e-14
4.64267e-14
5.43096e-14
8.88222e-05
9.66557e-06
7.69128e-08
-1.43862e-09
-5.49651e-12
7.1046e-15
1.03487e-14
1.03852e-14
1.0393e-14
1.03943e-14
1.03948e-14
1.03991e-14
1.04245e-14
1.04554e-14
1.07115e-14
1.09305e-14
1.32396e-14
1.44867e-14
4.64267e-14
5.43096e-14
8.8725e-05
9.64861e-06
7.64396e-08
-1.43991e-09
-5.49275e-12
7.10796e-15
1.03487e-14
1.03852e-14
1.0393e-14
1.03943e-14
1.03948e-14
1.03991e-14
1.04245e-14
1.04554e-14
1.07115e-14
1.09305e-14
1.32396e-14
1.44867e-14
4.64267e-14
5.43096e-14
8.871e-05
9.64628e-06
7.63755e-08
-1.44013e-09
-5.49243e-12
7.10832e-15
1.03487e-14
1.03852e-14
1.0393e-14
1.03943e-14
1.03948e-14
1.03991e-14
1.04245e-14
1.04554e-14
1.07115e-14
1.09305e-14
1.32396e-14
1.44867e-14
4.64267e-14
5.43096e-14
8.86843e-05
9.64175e-06
7.6248e-08
-1.44051e-09
-5.49156e-12
7.10913e-15
1.03487e-14
1.03852e-14
1.0393e-14
1.03943e-14
1.03948e-14
1.03991e-14
1.04245e-14
1.04554e-14
1.07115e-14
1.09305e-14
1.32396e-14
1.44867e-14
4.64267e-14
5.43096e-14
8.86843e-05
9.64175e-06
7.6248e-08
-1.44051e-09
-5.49156e-12
7.10913e-15
1.03487e-14
1.03852e-14
1.0393e-14
1.03943e-14
1.03948e-14
1.03991e-14
1.04245e-14
1.04554e-14
1.07115e-14
1.09305e-14
1.32396e-14
1.44867e-14
4.64267e-14
5.43096e-14
8.871e-05
9.64628e-06
7.63755e-08
-1.44013e-09
-5.49243e-12
7.10832e-15
1.03487e-14
1.03852e-14
1.0393e-14
1.03943e-14
1.03948e-14
1.03991e-14
1.04245e-14
1.04554e-14
1.07115e-14
1.09305e-14
1.32396e-14
1.44867e-14
4.64267e-14
5.43096e-14
8.8725e-05
9.64861e-06
7.64396e-08
-1.43991e-09
-5.49275e-12
7.10796e-15
1.03487e-14
1.03852e-14
1.0393e-14
1.03943e-14
1.03948e-14
1.03991e-14
1.04245e-14
1.04554e-14
1.07115e-14
1.09305e-14
1.32396e-14
1.44867e-14
4.64267e-14
5.43096e-14
8.88222e-05
9.66557e-06
7.69128e-08
-1.43862e-09
-5.49651e-12
7.1046e-15
1.03487e-14
1.03852e-14
1.0393e-14
1.03943e-14
1.03948e-14
1.03991e-14
1.04245e-14
1.04554e-14
1.07115e-14
1.09305e-14
1.32396e-14
1.44867e-14
4.64267e-14
5.43096e-14
8.88615e-05
9.67163e-06
7.70771e-08
-1.43809e-09
-5.49756e-12
7.10351e-15
1.03487e-14
1.03852e-14
1.0393e-14
1.03943e-14
1.03948e-14
1.03991e-14
1.04245e-14
1.04554e-14
1.07115e-14
1.09305e-14
1.32396e-14
1.44867e-14
4.64267e-14
5.43096e-14
8.90688e-05
9.70849e-06
7.8107e-08
-1.4361e-09
-5.50952e-12
7.09387e-15
1.03487e-14
1.03852e-14
1.0393e-14
1.03943e-14
1.03948e-14
1.03991e-14
1.04245e-14
1.04554e-14
1.07114e-14
1.09304e-14
1.32395e-14
1.44866e-14
4.64262e-14
5.43093e-14
8.91354e-05
9.71887e-06
7.83933e-08
-1.43539e-09
-5.51239e-12
7.09139e-15
1.03487e-14
1.03852e-14
1.0393e-14
1.03943e-14
1.03948e-14
1.03991e-14
1.04245e-14
1.04554e-14
1.07114e-14
1.09304e-14
1.32394e-14
1.44865e-14
4.64259e-14
5.43091e-14
8.87665e-05
9.68472e-06
7.78793e-08
-1.44698e-09
-5.55241e-12
7.07174e-15
1.03487e-14
1.03852e-14
1.0393e-14
1.03943e-14
1.03947e-14
1.03987e-14
1.0424e-14
1.04549e-14
1.07106e-14
1.09295e-14
1.32371e-14
1.4484e-14
4.64134e-14
5.4298e-14
8.86518e-05
9.67053e-06
7.75866e-08
-1.4491e-09
-5.55527e-12
7.07202e-15
1.03487e-14
1.03851e-14
1.0393e-14
1.03943e-14
1.03947e-14
1.03986e-14
1.04239e-14
1.04548e-14
1.07104e-14
1.09292e-14
1.32364e-14
1.44832e-14
4.64094e-14