/*--------------------------------*- C++ -*----------------------------------*\
  =========                 |
  \\      /  F ield         | OpenFOAM: The Open Source CFD Toolbox
   \\    /   O peration     | Website:  https://openfoam.org
    \\  /    A nd           | Version:  8
     \\/     M anipulation  |
\*---------------------------------------------------------------------------*/
FoamFile
{
    version     2.0;
    format      ascii;
    class       volScalarField;
    location    "2.9";
    object      p;
}
// * * * * * * * * * * * * * * * * * * * * * * * * * * * * * * * * * * * * * //

dimensions      [0 2 -2 0 0 0 0];

internalField   nonuniform List<scalar> 
180000
(
0.000902716
0.00084162
0.000880148
0.000749573
0.000818763
0.000888201
0.000827337
0.000865581
0.000736332
0.000804373
0.000887461
0.00082663
0.00086484
0.000735713
0.000803673
0.000883291
0.00082262
0.000860654
0.000732175
0.000799743
0.000882818
0.00082217
0.000860178
0.00073178
0.000799296
0.000880981
0.000820415
0.000858328
0.000730239
0.000797563
0.000880732
0.000820178
0.000858076
0.000730031
0.000797325
0.000879925
0.000819408
0.000857261
0.000729353
0.000796561
0.000879822
0.00081931
0.000857157
0.000729267
0.000796463
0.000879593
0.000819092
0.000856926
0.000729075
0.000796246
0.000879593
0.000819092
0.000856926
0.000729075
0.000796246
0.000879822
0.00081931
0.000857157
0.000729267
0.000796463
0.000879925
0.000819408
0.000857261
0.000729353
0.000796561
0.000880732
0.000820178
0.000858076
0.000730031
0.000797325
0.000880981
0.000820415
0.000858328
0.000730239
0.000797563
0.000882818
0.00082217
0.000860178
0.00073178
0.000799296
0.000883291
0.00082262
0.000860654
0.000732175
0.000799743
0.000887461
0.00082663
0.00086484
0.000735713
0.000803673
0.000888201
0.000827337
0.000865581
0.000736332
0.000804373
0.000902716
0.00084162
0.000880148
0.000749573
0.000818763
0.000735652
0.000707477
0.00072618
0.000657165
0.000696424
0.000729351
0.000700379
0.000719517
0.000649405
0.000688937
0.000729023
0.000700022
0.000719171
0.000649036
0.000688567
0.000727132
0.00069795
0.000717174
0.000646892
0.000686444
0.000726918
0.000697718
0.000716947
0.000646654
0.000686203
0.000726077
0.000696806
0.000716058
0.000645715
0.000685261
0.000725964
0.000696683
0.000715937
0.000645588
0.000685132
0.000725593
0.000696281
0.000715543
0.000645175
0.000684715
0.000725546
0.00069623
0.000715493
0.000645122
0.000684662
0.000725441
0.000696116
0.000715381
0.000645005
0.000684543
0.000725441
0.000696116
0.000715381
0.000645005
0.000684543
0.000725546
0.00069623
0.000715493
0.000645122
0.000684662
0.000725593
0.000696281
0.000715543
0.000645175
0.000684715
0.000725964
0.000696683
0.000715937
0.000645588
0.000685132
0.000726077
0.000696806
0.000716058
0.000645715
0.000685261
0.000726918
0.000697718
0.000716947
0.000646654
0.000686203
0.000727132
0.00069795
0.000717174
0.000646892
0.000686444
0.000729023
0.000700022
0.000719171
0.000649036
0.000688567
0.000729351
0.000700379
0.000719517
0.000649405
0.000688937
0.000735652
0.000707477
0.00072618
0.000657165
0.000696424
0.000528112
0.000505696
0.000521026
0.000467025
0.000500079
0.00052304
0.00050026
0.000515773
0.000461381
0.000494412
0.000522776
0.000499986
0.000515501
0.000461112
0.000494131
0.000521224
0.000498364
0.000513894
0.00045951
0.000492483
0.000521051
0.000498185
0.000513713
0.000459334
0.000492297
0.000520363
0.000497471
0.000512999
0.000458633
0.000491566
0.000520271
0.000497376
0.000512903
0.000458539
0.000491467
0.000519967
0.000497062
0.000512587
0.00045823
0.000491144
0.000519929
0.000497023
0.000512547
0.000458191
0.000491103
0.000519843
0.000496933
0.000512457
0.000458104
0.000491011
0.000519843
0.000496933
0.000512457
0.000458104
0.000491011
0.000519929
0.000497023
0.000512547
0.000458191
0.000491103
0.000519967
0.000497062
0.000512587
0.00045823
0.000491144
0.000520271
0.000497376
0.000512903
0.000458539
0.000491467
0.000520363
0.000497471
0.000512999
0.000458633
0.000491566
0.000521051
0.000498185
0.000513713
0.000459334
0.000492297
0.000521224
0.000498364
0.000513894
0.00045951
0.000492483
0.000522776
0.000499986
0.000515501
0.000461112
0.000494131
0.00052304
0.00050026
0.000515773
0.000461381
0.000494412
0.000528112
0.000505696
0.000521026
0.000467025
0.000500079
0.000493711
0.000467463
0.000485511
0.000424681
0.00046411
0.00048765
0.000461326
0.000479372
0.000418747
0.000457841
0.000487334
0.000461015
0.000479053
0.000418462
0.000457528
0.000485476
0.000459173
0.000477168
0.000416757
0.000455683
0.000485269
0.00045897
0.000476957
0.00041657
0.000455476
0.000484447
0.00045816
0.000476121
0.000415825
0.00045466
0.000484338
0.000458053
0.000476009
0.000415725
0.00045455
0.000483976
0.000457697
0.00047564
0.000415397
0.000454189
0.00048393
0.000457652
0.000475593
0.000415356
0.000454143
0.000483828
0.000457552
0.000475489
0.000415263
0.000454041
0.000483828
0.000457552
0.000475489
0.000415263
0.000454041
0.00048393
0.000457652
0.000475593
0.000415356
0.000454143
0.000483976
0.000457697
0.00047564
0.000415397
0.000454189
0.000484338
0.000458053
0.000476009
0.000415725
0.00045455
0.000484447
0.00045816
0.000476121
0.000415825
0.00045466
0.000485269
0.00045897
0.000476957
0.00041657
0.000455476
0.000485476
0.000459173
0.000477168
0.000416757
0.000455683
0.000487334
0.000461015
0.000479053
0.000418462
0.000457528
0.00048765
0.000461326
0.000479372
0.000418747
0.000457841
0.000493711
0.000467463
0.000485511
0.000424681
0.00046411
0.000516724
0.000488978
0.000508404
0.000443408
0.000488447
0.00051034
0.000482509
0.000501936
0.000437164
0.000481863
0.000510004
0.000482179
0.000501596
0.000436861
0.000481528
0.000508016
0.000480207
0.00049958
0.000435037
0.000479553
0.000507795
0.00047999
0.000499355
0.000434838
0.000479333
0.000506915
0.000479124
0.00049846
0.00043404
0.000478458
0.000506798
0.000479008
0.00049834
0.000433934
0.00047834
0.00050641
0.000478627
0.000497945
0.000433583
0.000477953
0.000506362
0.00047858
0.000497895
0.000433539
0.000477904
0.000506252
0.000478472
0.000497783
0.00043344
0.000477795
0.000506252
0.000478472
0.000497783
0.00043344
0.000477795
0.000506362
0.00047858
0.000497895
0.000433539
0.000477904
0.00050641
0.000478627
0.000497945
0.000433583
0.000477953
0.000506798
0.000479008
0.00049834
0.000433934
0.00047834
0.000506915
0.000479124
0.00049846
0.00043404
0.000478458
0.000507795
0.00047999
0.000499355
0.000434838
0.000479333
0.000508016
0.000480207
0.00049958
0.000435037
0.000479553
0.000510004
0.000482179
0.000501596
0.000436861
0.000481528
0.00051034
0.000482509
0.000501936
0.000437164
0.000481863
0.000516724
0.000488978
0.000508404
0.000443408
0.000488447
0.000529477
0.000502312
0.000521819
0.000456913
0.00050557
0.000523278
0.000495984
0.000515523
0.000450744
0.000499131
0.000522948
0.000495657
0.000515188
0.000450442
0.000498799
0.000520977
0.000493689
0.000513184
0.000448603
0.000496818
0.000520759
0.000493473
0.000512962
0.000448403
0.000496597
0.000519885
0.000492607
0.000512071
0.000447598
0.000495719
0.000519769
0.000492493
0.000511952
0.000447491
0.000495601
0.000519384
0.000492111
0.000511558
0.000447137
0.000495213
0.000519336
0.000492064
0.000511509
0.000447093
0.000495164
0.000519227
0.000491956
0.000511397
0.000446992
0.000495054
0.000519227
0.000491956
0.000511397
0.000446992
0.000495054
0.000519336
0.000492064
0.000511509
0.000447093
0.000495164
0.000519384
0.000492111
0.000511558
0.000447137
0.000495213
0.000519769
0.000492493
0.000511952
0.000447491
0.000495601
0.000519885
0.000492607
0.000512071
0.000447598
0.000495719
0.000520759
0.000493473
0.000512962
0.000448403
0.000496597
0.000520977
0.000493689
0.000513184
0.000448603
0.000496818
0.000522948
0.000495657
0.000515188
0.000450442
0.000498799
0.000523278
0.000495984
0.000515523
0.000450744
0.000499131
0.000529477
0.000502312
0.000521819
0.000456913
0.00050557
0.000529361
0.00050295
0.000522407
0.000458386
0.000510329
0.000523376
0.000496829
0.000516325
0.000452399
0.000504108
0.000523054
0.00049651
0.000515999
0.000452102
0.000503782
0.000521112
0.000494567
0.000514024
0.00045028
0.000501819
0.000520898
0.000494355
0.000513805
0.000450082
0.000501602
0.000520036
0.000493499
0.000512926
0.000449283
0.00050073
0.000519922
0.000493386
0.000512809
0.000449178
0.000500613
0.000519542
0.000493009
0.00051242
0.000448826
0.000500228
0.000519495
0.000492962
0.000512372
0.000448782
0.00050018
0.000519387
0.000492855
0.000512261
0.000448682
0.00050007
0.000519387
0.000492855
0.000512261
0.000448682
0.00050007
0.000519495
0.000492962
0.000512372
0.000448782
0.00050018
0.000519542
0.000493009
0.00051242
0.000448826
0.000500228
0.000519922
0.000493386
0.000512809
0.000449178
0.000500613
0.000520036
0.000493499
0.000512926
0.000449283
0.00050073
0.000520898
0.000494355
0.000513805
0.000450082
0.000501602
0.000521112
0.000494567
0.000514024
0.00045028
0.000501819
0.000523054
0.00049651
0.000515999
0.000452102
0.000503782
0.000523376
0.000496829
0.000516325
0.000452399
0.000504108
0.000529361
0.00050295
0.000522407
0.000458386
0.000510329
0.000526698
0.000500704
0.000520304
0.000456708
0.000511989
0.000520839
0.000494722
0.000514358
0.000450864
0.000505919
0.000520522
0.000494407
0.000514035
0.000450571
0.000505597
0.000518586
0.000492473
0.000512068
0.000448756
0.000503637
0.000518374
0.000492262
0.000511851
0.000448561
0.00050342
0.000517514
0.000491409
0.000510974
0.000447764
0.000502549
0.000517401
0.000491297
0.000510858
0.000447659
0.000502433
0.000517021
0.000490921
0.00051047
0.000447308
0.000502048
0.000516974
0.000490875
0.000510422
0.000447265
0.000501999
0.000516867
0.000490768
0.000510312
0.000447165
0.00050189
0.000516867
0.000490768
0.000510312
0.000447165
0.00050189
0.000516974
0.000490875
0.000510422
0.000447265
0.000501999
0.000517021
0.000490921
0.00051047
0.000447308
0.000502048
0.000517401
0.000491297
0.000510858
0.000447659
0.000502433
0.000517514
0.000491409
0.000510974
0.000447764
0.000502549
0.000518374
0.000492262
0.000511851
0.000448561
0.00050342
0.000518586
0.000492473
0.000512068
0.000448756
0.000503637
0.000520522
0.000494407
0.000514035
0.000450571
0.000505597
0.000520839
0.000494722
0.000514358
0.000450864
0.000505919
0.000526698
0.000500704
0.000520304
0.000456708
0.000511989
0.000525425
0.000499702
0.000519527
0.000456125
0.000514389
0.000519659
0.000493823
0.00051368
0.000450389
0.000508429
0.000519343
0.000493511
0.00051336
0.000450099
0.000508108
0.000517406
0.000491576
0.000511391
0.000448284
0.000506142
0.000517194
0.000491367
0.000511175
0.000448089
0.000505926
0.000516331
0.000490512
0.000510296
0.000447291
0.000505051
0.000516218
0.0004904
0.00051018
0.000447186
0.000504935
0.000515838
0.000490024
0.000509791
0.000446835
0.000504548
0.000515791
0.000489978
0.000509743
0.000446791
0.000504499
0.000515683
0.000489871
0.000509633
0.000446692
0.00050439
0.000515683
0.000489871
0.000509633
0.000446692
0.00050439
0.000515791
0.000489978
0.000509743
0.000446791
0.000504499
0.000515838
0.000490024
0.000509791
0.000446835
0.000504548
0.000516218
0.0004904
0.00051018
0.000447186
0.000504935
0.000516331
0.000490512
0.000510296
0.000447291
0.000505051
0.000517194
0.000491367
0.000511175
0.000448089
0.000505926
0.000517406
0.000491576
0.000511391
0.000448284
0.000506142
0.000519343
0.000493511
0.00051336
0.000450099
0.000508108
0.000519659
0.000493823
0.00051368
0.000450389
0.000508429
0.000525425
0.000499702
0.000519527
0.000456125
0.000514389
0.000525089
0.00049964
0.000519677
0.000456537
0.000517077
0.000519419
0.000493865
0.000513931
0.000450902
0.000511213
0.000519105
0.000493555
0.000513614
0.000450615
0.000510894
0.000517167
0.000491621
0.000511645
0.000448798
0.000508923
0.000516955
0.000491412
0.000511429
0.000448604
0.000508707
0.000516091
0.000490556
0.000510549
0.000447804
0.000507828
0.000515979
0.000490445
0.000510433
0.0004477
0.000507712
0.000515597
0.000490067
0.000510044
0.000447347
0.000507323
0.00051555
0.000490021
0.000509996
0.000447304
0.000507275
0.000515442
0.000489914
0.000509885
0.000447203
0.000507164
0.000515442
0.000489914
0.000509885
0.000447203
0.000507164
0.00051555
0.000490021
0.000509996
0.000447304
0.000507275
0.000515597
0.000490067
0.000510044
0.000447347
0.000507323
0.000515979
0.000490445
0.000510433
0.0004477
0.000507712
0.000516091
0.000490556
0.000510549
0.000447804
0.000507828
0.000516955
0.000491412
0.000511429
0.000448604
0.000508707
0.000517167
0.000491621
0.000511645
0.000448798
0.000508923
0.000519105
0.000493555
0.000513614
0.000450615
0.000510894
0.000519419
0.000493865
0.000513931
0.000450902
0.000511213
0.000525089
0.00049964
0.000519677
0.000456537
0.000517077
0.000524847
0.000499693
0.000519915
0.000457149
0.000518909
0.000519278
0.000494023
0.000514275
0.000451617
0.00051313
0.000518968
0.000493717
0.000513961
0.000451332
0.000512812
0.000517031
0.000491784
0.000511994
0.000449515
0.000510836
0.00051682
0.000491577
0.000511779
0.000449321
0.00051062
0.000515956
0.00049072
0.000510899
0.00044852
0.000509738
0.000515843
0.000490609
0.000510783
0.000448416
0.000509622
0.000515461
0.000490232
0.000510394
0.000448063
0.000509231
0.000515414
0.000490186
0.000510346
0.000448019
0.000509183
0.000515306
0.000490079
0.000510235
0.000447919
0.000509072
0.000515306
0.000490079
0.000510235
0.000447919
0.000509072
0.000515414
0.000490186
0.000510346
0.000448019
0.000509183
0.000515461
0.000490232
0.000510394
0.000448063
0.000509231
0.000515843
0.000490609
0.000510783
0.000448416
0.000509622
0.000515956
0.00049072
0.000510899
0.00044852
0.000509738
0.00051682
0.000491577
0.000511779
0.000449321
0.00051062
0.000517031
0.000491784
0.000511994
0.000449515
0.000510836
0.000518968
0.000493717
0.000513961
0.000451332
0.000512812
0.000519278
0.000494023
0.000514275
0.000451617
0.00051313
0.000524847
0.000499693
0.000519915
0.000457149
0.000518909
0.000524492
0.000499627
0.000520023
0.000457658
0.000517674
0.000519023
0.000494063
0.000514488
0.000452228
0.000511994
0.000518715
0.00049376
0.000514177
0.000451945
0.00051168
0.00051678
0.00049183
0.000512213
0.00045013
0.000509707
0.000516571
0.000491624
0.000511999
0.000449937
0.000509492
0.000515706
0.000490767
0.000511118
0.000449134
0.00050861
0.000515594
0.000490657
0.000511004
0.00044903
0.000508494
0.000515211
0.000490279
0.000510614
0.000448676
0.000508103
0.000515165
0.000490233
0.000510566
0.000448633
0.000508055
0.000515056
0.000490126
0.000510455
0.000448533
0.000507944
0.000515056
0.000490126
0.000510455
0.000448533
0.000507944
0.000515165
0.000490233
0.000510566
0.000448633
0.000508055
0.000515211
0.000490279
0.000510614
0.000448676
0.000508103
0.000515594
0.000490657
0.000511004
0.00044903
0.000508494
0.000515706
0.000490767
0.000511118
0.000449134
0.00050861
0.000516571
0.000491624
0.000511999
0.000449937
0.000509492
0.00051678
0.00049183
0.000512213
0.00045013
0.000509707
0.000518715
0.00049376
0.000514177
0.000451945
0.00051168
0.000519023
0.000494063
0.000514488
0.000452228
0.000511994
0.000524492
0.000499627
0.000520023
0.000457658
0.000517674
0.000524098
0.000499509
0.000520073
0.000458038
0.000515567
0.000518725
0.000494048
0.000514639
0.000452707
0.000509989
0.000518421
0.000493748
0.000514331
0.000452427
0.000509678
0.000516488
0.000491821
0.000512371
0.000450613
0.000507712
0.00051628
0.000491616
0.000512158
0.000450421
0.000507498
0.000515414
0.000490759
0.000511277
0.000449617
0.000506617
0.000515303
0.000490649
0.000511162
0.000449514
0.000506502
0.00051492
0.000490271
0.000510772
0.000449159
0.000506111
0.000514874
0.000490226
0.000510725
0.000449116
0.000506063
0.000514765
0.000490118
0.000510614
0.000449016
0.000505952
0.000514765
0.000490118
0.000510614
0.000449016
0.000505952
0.000514874
0.000490226
0.000510725
0.000449116
0.000506063
0.00051492
0.000490271
0.000510772
0.000449159
0.000506111
0.000515303
0.000490649
0.000511162
0.000449514
0.000506502
0.000515414
0.000490759
0.000511277
0.000449617
0.000506617
0.00051628
0.000491616
0.000512158
0.000450421
0.000507498
0.000516488
0.000491821
0.000512371
0.000450613
0.000507712
0.000518421
0.000493748
0.000514331
0.000452427
0.000509678
0.000518725
0.000494048
0.000514639
0.000452707
0.000509989
0.000524098
0.000499509
0.000520073
0.000458038
0.000515567
0.000523727
0.000499403
0.000520128
0.000458335
0.00051372
0.000518449
0.000494042
0.000514794
0.000453102
0.000508242
0.000518147
0.000493744
0.000514489
0.000452825
0.000507934
0.000516217
0.000491821
0.000512531
0.000451013
0.000505974
0.00051601
0.000491617
0.00051232
0.000450821
0.000505762
0.000515144
0.00049076
0.000511439
0.000450017
0.000504881
0.000515033
0.00049065
0.000511324
0.000449914
0.000504766
0.00051465
0.000490272
0.000510934
0.000449559
0.000504376
0.000514603
0.000490227
0.000510887
0.000449516
0.000504328
0.000514495
0.000490119
0.000510776
0.000449415
0.000504217
0.000514495
0.000490119
0.000510776
0.000449415
0.000504217
0.000514603
0.000490227
0.000510887
0.000449516
0.000504328
0.00051465
0.000490272
0.000510934
0.000449559
0.000504376
0.000515033
0.00049065
0.000511324
0.000449914
0.000504766
0.000515144
0.00049076
0.000511439
0.000450017
0.000504881
0.00051601
0.000491617
0.00051232
0.000450821
0.000505762
0.000516217
0.000491821
0.000512531
0.000451013
0.000505974
0.000518147
0.000493744
0.000514489
0.000452825
0.000507934
0.000518449
0.000494042
0.000514794
0.000453102
0.000508242
0.000523727
0.000499403
0.000520128
0.000458335
0.00051372
0.000523387
0.000499318
0.0005202
0.000458571
0.000512136
0.000518201
0.000494055
0.000514963
0.000453435
0.000506754
0.000517902
0.00049376
0.00051466
0.00045316
0.00050645
0.000515976
0.000491841
0.000512707
0.00045135
0.000504496
0.000515769
0.000491637
0.000512496
0.00045116
0.000504284
0.000514903
0.00049078
0.000511615
0.000450355
0.000503404
0.000514792
0.000490671
0.000511501
0.000450252
0.00050329
0.000514408
0.000490293
0.00051111
0.000449897
0.0005029
0.000514362
0.000490248
0.000511063
0.000449854
0.000502852
0.000514254
0.00049014
0.000510952
0.000449753
0.000502741
0.000514254
0.00049014
0.000510952
0.000449753
0.000502741
0.000514362
0.000490248
0.000511063
0.000449854
0.000502852
0.000514408
0.000490293
0.00051111
0.000449897
0.0005029
0.000514792
0.000490671
0.000511501
0.000450252
0.00050329
0.000514903
0.00049078
0.000511615
0.000450355
0.000503404
0.000515769
0.000491637
0.000512496
0.00045116
0.000504284
0.000515976
0.000491841
0.000512707
0.00045135
0.000504496
0.000517902
0.00049376
0.00051466
0.00045316
0.00050645
0.000518201
0.000494055
0.000514963
0.000453435
0.000506754
0.000523387
0.000499318
0.0005202
0.000458571
0.000512136
0.000523069
0.000499247
0.000520282
0.000458747
0.000510615
0.000517974
0.000494079
0.000515139
0.000453706
0.000505327
0.000517677
0.000493787
0.000514839
0.000453433
0.000505026
0.000515754
0.000491872
0.00051289
0.000451627
0.000503078
0.000515549
0.000491669
0.00051268
0.000451438
0.000502868
0.000514682
0.000490813
0.000511799
0.000450633
0.000501989
0.000514572
0.000490704
0.000511686
0.00045053
0.000501875
0.000514188
0.000490325
0.000511295
0.000450174
0.000501485
0.000514142
0.00049028
0.000511248
0.000450132
0.000501437
0.000514033
0.000490173
0.000511137
0.000450031
0.000501326
0.000514033
0.000490173
0.000511137
0.000450031
0.000501326
0.000514142
0.00049028
0.000511248
0.000450132
0.000501437
0.000514188
0.000490325
0.000511295
0.000450174
0.000501485
0.000514572
0.000490704
0.000511686
0.00045053
0.000501875
0.000514682
0.000490813
0.000511799
0.000450633
0.000501989
0.000515549
0.000491669
0.00051268
0.000451438
0.000502868
0.000515754
0.000491872
0.00051289
0.000451627
0.000503078
0.000517677
0.000493787
0.000514839
0.000453433
0.000505026
0.000517974
0.000494079
0.000515139
0.000453706
0.000505327
0.000523069
0.000499247
0.000520282
0.000458747
0.000510615
0.000522769
0.000499186
0.00052037
0.000458861
0.000509088
0.000517762
0.000494111
0.00051532
0.000453913
0.000503891
0.000517468
0.000493821
0.000515023
0.000453643
0.000503593
0.000515549
0.000491911
0.000513078
0.000451841
0.000501652
0.000515344
0.000491709
0.000512869
0.000451652
0.000501443
0.000514478
0.000490853
0.000511988
0.000450847
0.000500565
0.000514368
0.000490744
0.000511875
0.000450745
0.000500452
0.000513984
0.000490366
0.000511484
0.000450389
0.000500062
0.000513938
0.000490321
0.000511437
0.000450346
0.000500014
0.000513829
0.000490213
0.000511326
0.000450245
0.000499903
0.000513829
0.000490213
0.000511326
0.000450245
0.000499903
0.000513938
0.000490321
0.000511437
0.000450346
0.000500014
0.000513984
0.000490366
0.000511484
0.000450389
0.000500062
0.000514368
0.000490744
0.000511875
0.000450745
0.000500452
0.000514478
0.000490853
0.000511988
0.000450847
0.000500565
0.000515344
0.000491709
0.000512869
0.000451652
0.000501443
0.000515549
0.000491911
0.000513078
0.000451841
0.000501652
0.000517468
0.000493821
0.000515023
0.000453643
0.000503593
0.000517762
0.000494111
0.00051532
0.000453913
0.000503891
0.000522769
0.000499186
0.00052037
0.000458861
0.000509088
0.000522486
0.000499133
0.000520466
0.000458912
0.000507566
0.000517566
0.00049415
0.000515506
0.000454056
0.000502459
0.000517274
0.000493862
0.000515212
0.000453788
0.000502164
0.000515359
0.000491957
0.000513272
0.00045199
0.00050023
0.000515156
0.000491756
0.000513064
0.000451802
0.000500022
0.000514289
0.0004909
0.000512183
0.000450998
0.000499144
0.000514179
0.000490792
0.00051207
0.000450896
0.000499032
0.000513795
0.000490413
0.000511679
0.00045054
0.000498642
0.00051375
0.000490368
0.000511632
0.000450497
0.000498595
0.000513641
0.000490261
0.000511521
0.000450396
0.000498484
0.000513641
0.000490261
0.000511521
0.000450396
0.000498484
0.00051375
0.000490368
0.000511632
0.000450497
0.000498595
0.000513795
0.000490413
0.000511679
0.00045054
0.000498642
0.000514179
0.000490792
0.00051207
0.000450896
0.000499032
0.000514289
0.0004909
0.000512183
0.000450998
0.000499144
0.000515156
0.000491756
0.000513064
0.000451802
0.000500022
0.000515359
0.000491957
0.000513272
0.00045199
0.00050023
0.000517274
0.000493862
0.000515212
0.000453788
0.000502164
0.000517566
0.00049415
0.000515506
0.000454056
0.000502459
0.000522486
0.000499133
0.000520466
0.000458912
0.000507566
0.000522221
0.000499091
0.000520571
0.000458901
0.000506064
0.000517385
0.000494196
0.0005157
0.000454136
0.000501043
0.000517096
0.000493912
0.000515409
0.000453871
0.000500751
0.000515186
0.000492011
0.000513473
0.000452078
0.000498824
0.000514983
0.000491811
0.000513266
0.000451891
0.000498617
0.000514116
0.000490955
0.000512385
0.000451086
0.000497741
0.000514007
0.000490848
0.000512273
0.000450985
0.000497628
0.000513623
0.000490469
0.000511882
0.000450629
0.000497239
0.000513577
0.000490424
0.000511835
0.000450587
0.000497192
0.000513468
0.000490317
0.000511724
0.000450485
0.000497081
0.000513468
0.000490317
0.000511724
0.000450485
0.000497081
0.000513577
0.000490424
0.000511835
0.000450587
0.000497192
0.000513623
0.000490469
0.000511882
0.000450629
0.000497239
0.000514007
0.000490848
0.000512273
0.000450985
0.000497628
0.000514116
0.000490955
0.000512385
0.000451086
0.000497741
0.000514983
0.000491811
0.000513266
0.000451891
0.000498617
0.000515186
0.000492011
0.000513473
0.000452078
0.000498824
0.000517096
0.000493912
0.000515409
0.000453871
0.000500751
0.000517385
0.000494196
0.0005157
0.000454136
0.000501043
0.000522221
0.000499091
0.000520571
0.000458901
0.000506064
0.000521973
0.000499059
0.000520687
0.000458829
0.000504514
0.00051722
0.000494251
0.000515903
0.000454154
0.000499578
0.000516933
0.000493969
0.000515614
0.00045389
0.000499289
0.000515028
0.000492073
0.000513683
0.000452103
0.00049737
0.000514826
0.000491875
0.000513478
0.000451917
0.000497164
0.000513959
0.000491019
0.000512597
0.000451113
0.000496289
0.00051385
0.000490912
0.000512486
0.000451012
0.000496177
0.000513466
0.000490533
0.000512094
0.000450656
0.000495788
0.000513421
0.000490488
0.000512048
0.000450614
0.000495741
0.000513312
0.000490381
0.000511936
0.000450513
0.000495631
0.000513312
0.000490381
0.000511936
0.000450513
0.000495631
0.000513421
0.000490488
0.000512048
0.000450614
0.000495741
0.000513466
0.000490533
0.000512094
0.000450656
0.000495788
0.00051385
0.000490912
0.000512486
0.000451012
0.000496177
0.000513959
0.000491019
0.000512597
0.000451113
0.000496289
0.000514826
0.000491875
0.000513478
0.000451917
0.000497164
0.000515028
0.000492073
0.000513683
0.000452103
0.00049737
0.000516933
0.000493969
0.000515614
0.00045389
0.000499289
0.00051722
0.000494251
0.000515903
0.000454154
0.000499578
0.000521973
0.000499059
0.000520687
0.000458829
0.000504514
-1.63484e-05
1.58332e-05
2.87386e-06
7.09308e-07
2.54767e-07
1.81535e-07
1.65546e-07
1.62556e-07
1.61826e-07
1.61667e-07
1.61617e-07
1.61594e-07
1.61496e-07
1.61386e-07
1.60519e-07
1.59851e-07
1.53415e-07
1.50644e-07
1.11916e-07
1.07812e-07
-1.64207e-05
1.57952e-05
2.89029e-06
7.14845e-07
2.56146e-07
1.81874e-07
1.65609e-07
1.62558e-07
1.6181e-07
1.61647e-07
1.61595e-07
1.61572e-07
1.61471e-07
1.61359e-07
1.60478e-07
1.59803e-07
1.53295e-07
1.50518e-07
1.11616e-07
1.076e-07
-1.64152e-05
1.57861e-05
2.88755e-06
7.14485e-07
2.5608e-07
1.81867e-07
1.65608e-07
1.62558e-07
1.6181e-07
1.61647e-07
1.61595e-07
1.61571e-07
1.61471e-07
1.61359e-07
1.60477e-07
1.59802e-07
1.53293e-07
1.50516e-07
1.11613e-07
1.07598e-07
-1.63878e-05
1.57357e-05
2.87225e-06
7.12466e-07
2.55708e-07
1.81822e-07
1.65599e-07
1.62556e-07
1.61809e-07
1.61646e-07
1.61594e-07
1.6157e-07
1.61469e-07
1.61357e-07
1.60475e-07
1.59799e-07
1.53286e-07
1.50509e-07
1.11601e-07
1.07592e-07
-1.63835e-05
1.57291e-05
2.86996e-06
7.12107e-07
2.55629e-07
1.81809e-07
1.65596e-07
1.62556e-07
1.61809e-07
1.61646e-07
1.61594e-07
1.6157e-07
1.61469e-07
1.61357e-07
1.60475e-07
1.59799e-07
1.53286e-07
1.50509e-07
1.11601e-07
1.07591e-07
-1.63686e-05
1.57057e-05
2.86207e-06
7.10929e-07
2.55378e-07
1.81769e-07
1.65587e-07
1.62554e-07
1.61808e-07
1.61646e-07
1.61594e-07
1.6157e-07
1.61469e-07
1.61357e-07
1.60474e-07
1.59798e-07
1.53286e-07
1.50509e-07
1.11601e-07
1.07591e-07
-1.63664e-05
1.57022e-05
2.86087e-06
7.10737e-07
2.55334e-07
1.81761e-07
1.65585e-07
1.62554e-07
1.61808e-07
1.61646e-07
1.61594e-07
1.6157e-07
1.61469e-07
1.61357e-07
1.60474e-07
1.59798e-07
1.53286e-07
1.50509e-07
1.11601e-07
1.07591e-07
-1.63598e-05
1.5692e-05
2.85744e-06
7.10221e-07
2.55223e-07
1.81743e-07
1.65581e-07
1.62553e-07
1.61808e-07
1.61646e-07
1.61593e-07
1.6157e-07
1.61469e-07
1.61357e-07
1.60474e-07
1.59798e-07
1.53286e-07
1.50509e-07
1.11601e-07
1.07591e-07
-1.63589e-05
1.56905e-05
2.85695e-06
7.10143e-07
2.55205e-07
1.8174e-07
1.6558e-07
1.62553e-07
1.61808e-07
1.61646e-07
1.61593e-07
1.6157e-07
1.61469e-07
1.61357e-07
1.60474e-07
1.59798e-07
1.53286e-07
1.50509e-07
1.11601e-07
1.07591e-07
-1.63571e-05
1.56876e-05
2.85599e-06
7.1e-07
2.55174e-07
1.81735e-07
1.65579e-07
1.62553e-07
1.61808e-07
1.61646e-07
1.61593e-07
1.6157e-07
1.61469e-07
1.61357e-07
1.60474e-07
1.59798e-07
1.53286e-07
1.50509e-07
1.11601e-07
1.07591e-07
-1.63571e-05
1.56876e-05
2.85599e-06
7.1e-07
2.55174e-07
1.81735e-07
1.65579e-07
1.62553e-07
1.61808e-07
1.61646e-07
1.61593e-07
1.6157e-07
1.61469e-07
1.61357e-07
1.60474e-07
1.59798e-07
1.53286e-07
1.50509e-07
1.11601e-07
1.07591e-07
-1.63589e-05
1.56905e-05
2.85695e-06
7.10143e-07
2.55205e-07
1.8174e-07
1.6558e-07
1.62553e-07
1.61808e-07
1.61646e-07
1.61593e-07
1.6157e-07
1.61469e-07
1.61357e-07
1.60474e-07
1.59798e-07
1.53286e-07
1.50509e-07
1.11601e-07
1.07591e-07
-1.63598e-05
1.5692e-05
2.85744e-06
7.10221e-07
2.55223e-07
1.81743e-07
1.65581e-07
1.62553e-07
1.61808e-07
1.61646e-07
1.61593e-07
1.6157e-07
1.61469e-07
1.61357e-07
1.60474e-07
1.59798e-07
1.53286e-07
1.50509e-07
1.11601e-07
1.07591e-07
-1.63664e-05
1.57022e-05
2.86087e-06
7.10737e-07
2.55334e-07
1.81761e-07
1.65585e-07
1.62554e-07
1.61808e-07
1.61646e-07
1.61594e-07
1.6157e-07
1.61469e-07
1.61357e-07
1.60474e-07
1.59798e-07
1.53286e-07
1.50509e-07
1.11601e-07
1.07591e-07
-1.63686e-05
1.57057e-05
2.86207e-06
7.10929e-07
2.55378e-07
1.81769e-07
1.65587e-07
1.62554e-07
1.61808e-07
1.61646e-07
1.61594e-07
1.6157e-07
1.61469e-07
1.61357e-07
1.60474e-07
1.59798e-07
1.53286e-07
1.50509e-07
1.11601e-07
1.07591e-07
-1.63835e-05
1.57291e-05
2.86996e-06
7.12107e-07
2.55629e-07
1.81809e-07
1.65596e-07
1.62556e-07
1.61809e-07
1.61646e-07
1.61594e-07
1.6157e-07
1.61469e-07
1.61357e-07
1.60475e-07
1.59799e-07
1.53286e-07
1.50509e-07
1.11601e-07
1.07591e-07
-1.63878e-05
1.57357e-05
2.87225e-06
7.12466e-07
2.55708e-07
1.81822e-07
1.65599e-07
1.62556e-07
1.61809e-07
1.61646e-07
1.61594e-07
1.6157e-07
1.61469e-07
1.61357e-07
1.60475e-07
1.59799e-07
1.53286e-07
1.50509e-07
1.11601e-07
1.07592e-07
-1.64152e-05
1.57861e-05
2.88755e-06
7.14485e-07
2.5608e-07
1.81867e-07
1.65608e-07
1.62558e-07
1.6181e-07
1.61647e-07
1.61595e-07
1.61571e-07
1.61471e-07
1.61359e-07
1.60477e-07
1.59802e-07
1.53293e-07
1.50516e-07
1.11613e-07
1.07598e-07
-1.64207e-05
1.57952e-05
2.89029e-06
7.14845e-07
2.56146e-07
1.81874e-07
1.65609e-07
1.62558e-07
1.6181e-07
1.61647e-07
1.61595e-07
1.61572e-07
1.61471e-07
1.61359e-07
1.60478e-07
1.59803e-07
1.53295e-07
1.50518e-07
1.11616e-07
1.076e-07
-1.63484e-05
1.58332e-05
2.87386e-06
7.09308e-07
2.54767e-07
1.81535e-07
1.65546e-07
1.62556e-07
1.61826e-07
1.61667e-07
1.61617e-07
1.61594e-07
1.61496e-07
1.61386e-07
1.60519e-07
1.59851e-07
1.53415e-07
1.50644e-07
1.11916e-07
1.07812e-07
-1.59641e-05
1.60043e-05
2.89984e-06
7.14854e-07
2.55757e-07
1.81762e-07
1.65576e-07
1.62648e-07
1.61917e-07
1.61756e-07
1.61705e-07
1.61681e-07
1.61582e-07
1.6147e-07
1.60564e-07
1.59833e-07
1.53333e-07
1.50537e-07
1.11321e-07
1.07188e-07
-1.60315e-05
1.59662e-05
2.91646e-06
7.20453e-07
2.57152e-07
1.82104e-07
1.65641e-07
1.62649e-07
1.61902e-07
1.61736e-07
1.61683e-07
1.61659e-07
1.61558e-07
1.61444e-07
1.60522e-07
1.59784e-07
1.53212e-07
1.50409e-07
1.11017e-07
1.06972e-07
-1.60258e-05
1.59571e-05
2.91369e-06
7.2009e-07
2.57085e-07
1.82097e-07
1.6564e-07
1.62649e-07
1.61901e-07
1.61736e-07
1.61683e-07
1.61659e-07
1.61557e-07
1.61444e-07
1.60521e-07
1.59783e-07
1.5321e-07
1.50407e-07
1.11014e-07
1.0697e-07
-1.59975e-05
1.59061e-05