/*--------------------------------*- C++ -*----------------------------------*\
  =========                 |
  \\      /  F ield         | OpenFOAM: The Open Source CFD Toolbox
   \\    /   O peration     | Website:  https://openfoam.org
    \\  /    A nd           | Version:  8
     \\/     M anipulation  |
\*---------------------------------------------------------------------------*/
FoamFile
{
    version     2.0;
    format      ascii;
    class       volScalarField;
    location    "0.2";
    object      p;
}
// * * * * * * * * * * * * * * * * * * * * * * * * * * * * * * * * * * * * * //

dimensions      [0 2 -2 0 0 0 0];

internalField   nonuniform List<scalar> 
180000
(
0.00177471
0.00174369
0.00176051
0.00160189
0.00169176
0.00177311
0.0017419
0.0017589
0.00159918
0.00169009
0.0017731
0.00174189
0.00175889
0.00159917
0.00169009
0.00177306
0.00174185
0.00175887
0.00159914
0.00169009
0.00177306
0.00174185
0.00175887
0.00159914
0.00169009
0.00177307
0.00174185
0.00175888
0.00159915
0.0016901
0.00177307
0.00174186
0.00175888
0.00159915
0.0016901
0.00177307
0.00174186
0.00175888
0.00159915
0.0016901
0.00177307
0.00174186
0.00175888
0.00159915
0.00169011
0.00177307
0.00174186
0.00175888
0.00159915
0.00169011
0.00177307
0.00174186
0.00175888
0.00159915
0.00169011
0.00177307
0.00174186
0.00175888
0.00159915
0.00169011
0.00177307
0.00174186
0.00175888
0.00159915
0.0016901
0.00177307
0.00174186
0.00175888
0.00159915
0.0016901
0.00177307
0.00174185
0.00175888
0.00159915
0.0016901
0.00177306
0.00174185
0.00175887
0.00159914
0.00169009
0.00177306
0.00174185
0.00175887
0.00159914
0.00169009
0.0017731
0.00174189
0.00175889
0.00159917
0.00169009
0.00177311
0.0017419
0.0017589
0.00159918
0.00169009
0.00177471
0.00174369
0.00176051
0.00160189
0.00169176
0.000632709
0.000645104
0.000640128
0.000704549
0.000671398
0.00063327
0.000645659
0.000640651
0.000706274
0.000671798
0.000633274
0.000645663
0.000640652
0.000706277
0.000671797
0.000633293
0.000645681
0.000640665
0.000706303
0.000671799
0.000633291
0.00064568
0.000640662
0.000706299
0.000671797
0.000633291
0.000645679
0.000640661
0.000706297
0.000671796
0.000633289
0.000645678
0.00064066
0.000706294
0.000671795
0.000633289
0.000645678
0.00064066
0.000706293
0.000671795
0.000633288
0.000645677
0.000640659
0.000706292
0.000671795
0.000633288
0.000645677
0.000640659
0.000706292
0.000671794
0.000633288
0.000645677
0.000640659
0.000706292
0.000671794
0.000633288
0.000645677
0.000640659
0.000706292
0.000671795
0.000633289
0.000645678
0.00064066
0.000706293
0.000671795
0.000633289
0.000645678
0.00064066
0.000706294
0.000671795
0.000633291
0.000645679
0.000640661
0.000706297
0.000671796
0.000633291
0.00064568
0.000640662
0.000706299
0.000671797
0.000633293
0.000645681
0.000640665
0.000706303
0.000671799
0.000633274
0.000645663
0.000640652
0.000706277
0.000671797
0.00063327
0.000645659
0.000640651
0.000706274
0.000671798
0.000632709
0.000645104
0.000640128
0.000704549
0.000671398
0.000738526
0.000722151
0.000732736
0.000664405
0.000706688
0.000737627
0.000721208
0.000731883
0.00066356
0.000705887
0.000737625
0.000721206
0.000731883
0.00066356
0.000705889
0.000737603
0.000721182
0.00073187
0.000663549
0.00070589
0.000737606
0.000721186
0.000731873
0.000663552
0.000705893
0.000737608
0.000721187
0.000731876
0.000663553
0.000705897
0.00073761
0.000721189
0.000731878
0.000663555
0.000705898
0.000737612
0.000721191
0.000731879
0.000663555
0.0007059
0.000737613
0.000721191
0.00073188
0.000663556
0.0007059
0.000737613
0.000721192
0.000731881
0.000663556
0.000705901
0.000737613
0.000721192
0.000731881
0.000663556
0.000705901
0.000737613
0.000721191
0.00073188
0.000663556
0.0007059
0.000737612
0.000721191
0.000731879
0.000663555
0.0007059
0.00073761
0.000721189
0.000731878
0.000663555
0.000705898
0.000737608
0.000721187
0.000731876
0.000663553
0.000705897
0.000737606
0.000721186
0.000731873
0.000663552
0.000705893
0.000737603
0.000721182
0.00073187
0.000663549
0.00070589
0.000737625
0.000721206
0.000731883
0.00066356
0.000705889
0.000737627
0.000721208
0.000731883
0.00066356
0.000705887
0.000738526
0.000722151
0.000732736
0.000664405
0.000706688
0.000784386
0.000771092
0.000780518
0.000727805
0.000764091
0.000783707
0.00077039
0.000779833
0.000727095
0.000763543
0.000783706
0.000770389
0.000779833
0.000727094
0.000763545
0.000783688
0.000770371
0.000779822
0.000727086
0.000763546
0.000783691
0.000770374
0.000779826
0.000727088
0.000763549
0.000783693
0.000770375
0.000779828
0.00072709
0.000763552
0.000783695
0.000770377
0.00077983
0.000727091
0.000763553
0.000783696
0.000770378
0.000779831
0.000727092
0.000763554
0.000783697
0.000770379
0.000779832
0.000727092
0.000763555
0.000783697
0.000770379
0.000779832
0.000727093
0.000763555
0.000783697
0.000770379
0.000779832
0.000727093
0.000763555
0.000783697
0.000770379
0.000779832
0.000727092
0.000763555
0.000783696
0.000770378
0.000779831
0.000727092
0.000763554
0.000783695
0.000770377
0.00077983
0.000727091
0.000763553
0.000783693
0.000770375
0.000779828
0.00072709
0.000763552
0.000783691
0.000770374
0.000779826
0.000727088
0.000763549
0.000783688
0.000770371
0.000779822
0.000727086
0.000763546
0.000783706
0.000770389
0.000779833
0.000727094
0.000763545
0.000783707
0.00077039
0.000779833
0.000727095
0.000763543
0.000784386
0.000771092
0.000780518
0.000727805
0.000764091
0.000775457
0.000767487
0.000774768
0.000741015
0.00077034
0.000775047
0.000767077
0.000774381
0.000740638
0.000770009
0.000775048
0.000767077
0.000774382
0.000740638
0.00077001
0.000775037
0.000767066
0.000774377
0.000740634
0.000770013
0.000775039
0.000767068
0.000774379
0.000740636
0.000770015
0.000775041
0.00076707
0.000774382
0.000740637
0.000770017
0.000775042
0.000767071
0.000774383
0.000740638
0.000770018
0.000775043
0.000767072
0.000774384
0.000740639
0.000770019
0.000775044
0.000767073
0.000774384
0.000740639
0.00077002
0.000775044
0.000767073
0.000774385
0.00074064
0.00077002
0.000775044
0.000767073
0.000774385
0.00074064
0.00077002
0.000775044
0.000767073
0.000774384
0.000740639
0.00077002
0.000775043
0.000767072
0.000774384
0.000740639
0.000770019
0.000775042
0.000767071
0.000774383
0.000740638
0.000770018
0.000775041
0.00076707
0.000774382
0.000740637
0.000770017
0.000775039
0.000767068
0.000774379
0.000740636
0.000770015
0.000775037
0.000767066
0.000774377
0.000740634
0.000770013
0.000775048
0.000767077
0.000774382
0.000740638
0.00077001
0.000775047
0.000767077
0.000774381
0.000740638
0.000770009
0.000775457
0.000767487
0.000774768
0.000741015
0.00077034
0.000766518
0.000758481
0.000766304
0.000732477
0.000764868
0.000766117
0.000758088
0.00076594
0.000732159
0.000764569
0.000766118
0.000758088
0.000765941
0.000732159
0.00076457
0.000766107
0.000758078
0.000765936
0.000732156
0.000764573
0.000766109
0.00075808
0.000765939
0.000732158
0.000764575
0.000766111
0.000758082
0.000765941
0.00073216
0.000764578
0.000766113
0.000758083
0.000765943
0.000732161
0.000764579
0.000766114
0.000758084
0.000765944
0.000732161
0.00076458
0.000766114
0.000758085
0.000765944
0.000732162
0.000764581
0.000766115
0.000758085
0.000765945
0.000732162
0.000764581
0.000766115
0.000758085
0.000765945
0.000732162
0.000764581
0.000766114
0.000758085
0.000765944
0.000732162
0.000764581
0.000766114
0.000758084
0.000765944
0.000732161
0.00076458
0.000766113
0.000758083
0.000765943
0.000732161
0.000764579
0.000766111
0.000758082
0.000765941
0.00073216
0.000764578
0.000766109
0.00075808
0.000765939
0.000732158
0.000764575
0.000766107
0.000758078
0.000765936
0.000732156
0.000764573
0.000766118
0.000758088
0.000765941
0.000732159
0.00076457
0.000766117
0.000758088
0.00076594
0.000732159
0.000764569
0.000766518
0.000758481
0.000766304
0.000732477
0.000764868
0.000763438
0.000754437
0.00076323
0.000725963
0.000763287
0.000763012
0.000754016
0.000762843
0.000725621
0.000762996
0.000763012
0.000754017
0.000762844
0.000725621
0.000762998
0.000763
0.000754005
0.000762839
0.000725617
0.000763001
0.000763003
0.000754007
0.000762842
0.000725619
0.000763004
0.000763005
0.000754009
0.000762844
0.000725621
0.000763007
0.000763007
0.000754011
0.000762846
0.000725622
0.000763008
0.000763008
0.000754012
0.000762847
0.000725623
0.00076301
0.000763008
0.000754013
0.000762848
0.000725624
0.00076301
0.000763009
0.000754013
0.000762848
0.000725624
0.00076301
0.000763009
0.000754013
0.000762848
0.000725624
0.00076301
0.000763008
0.000754013
0.000762848
0.000725624
0.00076301
0.000763008
0.000754012
0.000762847
0.000725623
0.00076301
0.000763007
0.000754011
0.000762846
0.000725622
0.000763008
0.000763005
0.000754009
0.000762844
0.000725621
0.000763007
0.000763003
0.000754007
0.000762842
0.000725619
0.000763004
0.000763
0.000754005
0.000762839
0.000725617
0.000763001
0.000763012
0.000754017
0.000762844
0.000725621
0.000762998
0.000763012
0.000754016
0.000762843
0.000725621
0.000762996
0.000763438
0.000754437
0.00076323
0.000725963
0.000763287
0.000761809
0.000752413
0.000761901
0.000723204
0.000764378
0.000761389
0.000751994
0.000761519
0.000722859
0.000764116
0.000761389
0.000751994
0.000761521
0.000722859
0.000764118
0.000761377
0.000751982
0.000761515
0.000722856
0.000764122
0.00076138
0.000751985
0.000761518
0.000722858
0.000764125
0.000761382
0.000751987
0.000761521
0.00072286
0.000764128
0.000761384
0.000751989
0.000761523
0.000722862
0.00076413
0.000761385
0.00075199
0.000761524
0.000722863
0.000764131
0.000761386
0.000751991
0.000761525
0.000722863
0.000764131
0.000761386
0.000751991
0.000761525
0.000722864
0.000764132
0.000761386
0.000751991
0.000761525
0.000722864
0.000764132
0.000761386
0.000751991
0.000761525
0.000722863
0.000764131
0.000761385
0.00075199
0.000761524
0.000722863
0.000764131
0.000761384
0.000751989
0.000761523
0.000722862
0.00076413
0.000761382
0.000751987
0.000761521
0.00072286
0.000764128
0.00076138
0.000751985
0.000761518
0.000722858
0.000764125
0.000761377
0.000751982
0.000761515
0.000722856
0.000764122
0.000761389
0.000751994
0.000761521
0.000722859
0.000764118
0.000761389
0.000751994
0.000761519
0.000722859
0.000764116
0.000761809
0.000752413
0.000761901
0.000723204
0.000764378
0.000759697
0.000750167
0.000760219
0.000721316
0.000765625
0.000759292
0.000749764
0.000759855
0.000720988
0.000765401
0.000759293
0.000749764
0.000759856
0.000720988
0.000765402
0.000759281
0.000749752
0.000759851
0.000720985
0.000765407
0.000759284
0.000749755
0.000759855
0.000720987
0.00076541
0.000759286
0.000749757
0.000759858
0.000720989
0.000765414
0.000759288
0.000749759
0.00075986
0.000720991
0.000765416
0.00075929
0.00074976
0.000759861
0.000720992
0.000765417
0.000759291
0.000749761
0.000759862
0.000720993
0.000765417
0.000759291
0.000749762
0.000759862
0.000720993
0.000765418
0.000759291
0.000749762
0.000759862
0.000720993
0.000765418
0.000759291
0.000749761
0.000759862
0.000720993
0.000765417
0.00075929
0.00074976
0.000759861
0.000720992
0.000765417
0.000759288
0.000749759
0.00075986
0.000720991
0.000765416
0.000759286
0.000749757
0.000759858
0.000720989
0.000765414
0.000759284
0.000749755
0.000759855
0.000720987
0.00076541
0.000759281
0.000749752
0.000759851
0.000720985
0.000765407
0.000759293
0.000749764
0.000759856
0.000720988
0.000765402
0.000759292
0.000749764
0.000759855
0.000720988
0.000765401
0.000759697
0.000750167
0.000760219
0.000721316
0.000765625
0.000757246
0.000747567
0.00075818
0.00071921
0.000766769
0.000756855
0.000747177
0.000757832
0.000718899
0.000766579
0.000756856
0.000747178
0.000757833
0.0007189
0.000766581
0.000756844
0.000747166
0.000757829
0.000718897
0.000766586
0.000756847
0.000747169
0.000757832
0.0007189
0.000766589
0.00075685
0.000747171
0.000757835
0.000718902
0.000766593
0.000756852
0.000747173
0.000757837
0.000718904
0.000766595
0.000756853
0.000747175
0.000757839
0.000718905
0.000766596
0.000756854
0.000747175
0.00075784
0.000718906
0.000766597
0.000756855
0.000747176
0.00075784
0.000718906
0.000766597
0.000756855
0.000747176
0.00075784
0.000718906
0.000766597
0.000756854
0.000747175
0.00075784
0.000718906
0.000766597
0.000756853
0.000747175
0.000757839
0.000718905
0.000766596
0.000756852
0.000747173
0.000757837
0.000718904
0.000766595
0.00075685
0.000747171
0.000757835
0.000718902
0.000766593
0.000756847
0.000747169
0.000757832
0.0007189
0.000766589
0.000756844
0.000747166
0.000757829
0.000718897
0.000766586
0.000756856
0.000747178
0.000757833
0.0007189
0.000766581
0.000756855
0.000747177
0.000757832
0.000718899
0.000766579
0.000757246
0.000747567
0.00075818
0.00071921
0.000766769
0.000754786
0.000744916
0.000756097
0.000716965
0.00076849
0.000754406
0.000744538
0.000755763
0.00071667
0.000768333
0.000754407
0.000744539
0.000755764
0.00071667
0.000768335
0.000754396
0.000744527
0.00075576
0.000716668
0.000768341
0.000754399
0.00074453
0.000755764
0.000716671
0.000768345
0.000754402
0.000744533
0.000755768
0.000716674
0.000768348
0.000754404
0.000744535
0.00075577
0.000716676
0.00076835
0.000754405
0.000744536
0.000755771
0.000716677
0.000768352
0.000754406
0.000744537
0.000755772
0.000716678
0.000768352
0.000754407
0.000744538
0.000755773
0.000716678
0.000768353
0.000754407
0.000744538
0.000755773
0.000716678
0.000768353
0.000754406
0.000744537
0.000755772
0.000716678
0.000768352
0.000754405
0.000744536
0.000755771
0.000716677
0.000768352
0.000754404
0.000744535
0.00075577
0.000716676
0.00076835
0.000754402
0.000744533
0.000755768
0.000716674
0.000768348
0.000754399
0.00074453
0.000755764
0.000716671
0.000768345
0.000754396
0.000744527
0.00075576
0.000716668
0.000768341
0.000754407
0.000744539
0.000755764
0.00071667
0.000768335
0.000754406
0.000744538
0.000755763
0.00071667
0.000768333
0.000754786
0.000744916
0.000756097
0.000716965
0.00076849
0.00075238
0.000742316
0.000754053
0.000714676
0.000766358
0.000752011
0.000741948
0.000753732
0.000714396
0.000766215
0.000752013
0.00074195
0.000753734
0.000714396
0.000766217
0.000752001
0.000741938
0.00075373
0.000714394
0.000766225
0.000752004
0.000741941
0.000753734
0.000714397
0.000766228
0.000752007
0.000741944
0.000753738
0.000714401
0.000766232
0.00075201
0.000741946
0.00075374
0.000714402
0.000766234
0.000752011
0.000741947
0.000753742
0.000714404
0.000766236
0.000752012
0.000741948
0.000753743
0.000714405
0.000766237
0.000752013
0.000741949
0.000753743
0.000714405
0.000766237
0.000752013
0.000741949
0.000753743
0.000714405
0.000766237
0.000752012
0.000741948
0.000753743
0.000714405
0.000766237
0.000752011
0.000741947
0.000753742
0.000714404
0.000766236
0.00075201
0.000741946
0.00075374
0.000714402
0.000766234
0.000752007
0.000741944
0.000753738
0.000714401
0.000766232
0.000752004
0.000741941
0.000753734
0.000714397
0.000766228
0.000752001
0.000741938
0.00075373
0.000714394
0.000766225
0.000752013
0.00074195
0.000753734
0.000714396
0.000766217
0.000752011
0.000741948
0.000753732
0.000714396
0.000766215
0.00075238
0.000742316
0.000754053
0.000714676
0.000766358
0.000749995
0.000739745
0.000752021
0.000712274
0.000763061
0.000749637
0.000739388
0.000751713
0.000712008
0.000762925
0.000749638
0.000739389
0.000751715
0.000712008
0.000762927
0.000749627
0.000739377
0.000751712
0.000712007
0.000762936
0.000749631
0.000739381
0.000751716
0.00071201
0.00076294
0.000749634
0.000739384
0.00075172
0.000712014
0.000762944
0.000749636
0.000739386
0.000751723
0.000712016
0.000762946
0.000749638
0.000739388
0.000751725
0.000712017
0.000762948
0.000749639
0.000739389
0.000751725
0.000712018
0.000762949
0.00074964
0.000739389
0.000751726
0.000712019
0.000762949
0.00074964
0.000739389
0.000751726
0.000712019
0.000762949
0.000749639
0.000739389
0.000751725
0.000712018
0.000762949
0.000749638
0.000739388
0.000751725
0.000712017
0.000762948
0.000749636
0.000739386
0.000751723
0.000712016
0.000762946
0.000749634
0.000739384
0.00075172
0.000712014
0.000762944
0.000749631
0.000739381
0.000751716
0.00071201
0.00076294
0.000749627
0.000739377
0.000751712
0.000712007
0.000762936
0.000749638
0.000739389
0.000751715
0.000712008
0.000762927
0.000749637
0.000739388
0.000751713
0.000712008
0.000762925
0.000749995
0.000739745
0.000752021
0.000712274
0.000763061
0.000747611
0.000737181
0.000749982
0.000709736
0.000759958
0.000747265
0.000736835
0.000749687
0.000709484
0.000759831
0.000747266
0.000736836
0.000749689
0.000709484
0.000759833
0.000747255
0.000736825
0.000749687
0.000709484
0.000759843
0.000747259
0.000736828
0.000749691
0.000709487
0.000759847
0.000747262
0.000736831
0.000749695
0.000709491
0.000759852
0.000747265
0.000736834
0.000749698
0.000709493
0.000759854
0.000747267
0.000736836
0.0007497
0.000709494
0.000759856
0.000747268
0.000736837
0.000749701
0.000709495
0.000759857
0.000747268
0.000736837
0.000749701
0.000709496
0.000759857
0.000747268
0.000736837
0.000749701
0.000709496
0.000759857
0.000747268
0.000736837
0.000749701
0.000709495
0.000759857
0.000747267
0.000736836
0.0007497
0.000709494
0.000759856
0.000747265
0.000736834
0.000749698
0.000709493
0.000759854
0.000747262
0.000736831
0.000749695
0.000709491
0.000759852
0.000747259
0.000736828
0.000749691
0.000709487
0.000759847
0.000747255
0.000736825
0.000749687
0.000709484
0.000759843
0.000747266
0.000736836
0.000749689
0.000709484
0.000759833
0.000747265
0.000736835
0.000749687
0.000709484
0.000759831
0.000747611
0.000737181
0.000749982
0.000709736
0.000759958
0.00074523
0.000734623
0.000747935
0.000707077
0.000757046
0.000744895
0.000734286
0.000747654
0.000706837
0.000756928
0.000744896
0.000734288
0.000747656
0.000706837
0.000756931
0.000744885
0.000734277
0.000747654
0.000706837
0.000756942
0.000744889
0.000734281
0.000747658
0.000706841
0.000756946
0.000744893
0.000734284
0.000747663
0.000706845
0.000756951
0.000744896
0.000734286
0.000747666
0.000706847
0.000756953
0.000744897
0.000734288
0.000747667
0.000706849
0.000756955
0.000744899
0.000734289
0.000747669
0.000706849
0.000756956
0.000744899
0.00073429
0.000747669
0.00070685
0.000756956
0.000744899
0.00073429
0.000747669
0.00070685
0.000756956
0.000744899
0.000734289
0.000747669
0.000706849
0.000756956
0.000744897
0.000734288
0.000747667
0.000706849
0.000756955
0.000744896
0.000734286
0.000747666
0.000706847
0.000756953
0.000744893
0.000734284
0.000747663
0.000706845
0.000756951
0.000744889
0.000734281
0.000747658
0.000706841
0.000756946
0.000744885
0.000734277
0.000747654
0.000706837
0.000756942
0.000744896
0.000734288
0.000747656
0.000706837
0.000756931
0.000744895
0.000734286
0.000747654
0.000706837
0.000756928
0.00074523
0.000734623
0.000747935
0.000707077
0.000757046
0.000742855
0.000732072
0.000745884
0.000704313
0.000754132
0.000742529
0.000731746
0.000745616
0.000704085
0.000754023
0.000742531
0.000731748
0.000745618
0.000704086
0.000754026
0.00074252
0.000731736
0.000745617
0.000704086
0.000754038
0.000742525
0.00073174
0.000745622
0.00070409
0.000754042
0.000742528
0.000731744
0.000745626
0.000704094
0.000754048
0.000742531
0.000731747
0.000745629
0.000704096
0.00075405
0.000742533
0.000731749
0.000745631
0.000704098
0.000754052
0.000742534
0.00073175
0.000745632
0.000704099
0.000754053
0.000742535
0.00073175
0.000745633
0.0007041
0.000754053
0.000742535
0.00073175
0.000745633
0.0007041
0.000754053
0.000742534
0.00073175
0.000745632
0.000704099
0.000754053
0.000742533
0.000731749
0.000745631
0.000704098
0.000754052
0.000742531
0.000731747
0.000745629
0.000704096
0.00075405
0.000742528
0.000731744
0.000745626
0.000704094
0.000754048
0.000742525
0.00073174
0.000745622
0.00070409
0.000754042
0.00074252
0.000731736
0.000745617
0.000704086
0.000754038
0.000742531
0.000731748
0.000745618
0.000704086
0.000754026
0.000742529
0.000731746
0.000745616
0.000704085
0.000754023
0.000742855
0.000732072
0.000745884
0.000704313
0.000754132
0.000740485
0.000729529
0.000743831
0.000701459
0.000751173
0.00074017
0.000729213
0.000743576
0.000701241
0.000751072
0.000740172
0.000729215
0.000743578
0.000701242
0.000751074
0.000740161
0.000729204
0.000743578
0.000701243
0.000751088
0.000740166
0.000729209
0.000743583
0.000701247
0.000751093
0.00074017
0.000729212
0.000743588
0.000701251
0.000751098
0.000740172
0.000729215
0.00074359
0.000701254
0.000751101
0.000740175
0.000729217
0.000743593
0.000701256
0.000751103
0.000740176
0.000729218
0.000743594
0.000701257
0.000751104
0.000740176
0.000729219
0.000743594
0.000701257
0.000751104
0.000740176
0.000729219
0.000743594
0.000701257
0.000751104
0.000740176
0.000729218
0.000743594
0.000701257
0.000751104
0.000740175
0.000729217
0.000743593
0.000701256
0.000751103
0.000740172
0.000729215
0.00074359
0.000701254
0.000751101
0.00074017
0.000729212
0.000743588
0.000701251
0.000751098
0.000740166
0.000729209
0.000743583
0.000701247
0.000751093
0.000740161
0.000729204
0.000743578
0.000701243
0.000751088
0.000740172
0.000729215
0.000743578
0.000701242
0.000751074
0.00074017
0.000729213
0.000743576
0.000701241
0.000751072
0.000740485
0.000729529
0.000743831
0.000701459
0.000751173
0.00073812
0.000726995
0.000741777
0.000698522
0.000748202
0.000737815
0.000726689
0.000741534
0.000698315
0.000748108
0.000737817
0.000726691
0.000741537
0.000698316
0.000748111
0.000737807
0.000726681
0.000741537
0.000698317
0.000748126
0.000737812
0.000726685
0.000741542
0.000698321
0.000748131
0.000737816
0.000726689
0.000741547
0.000698326
0.000748137
0.000737819
0.000726692
0.00074155
0.000698329
0.000748139
0.000737821
0.000726694
0.000741552
0.000698331
0.000748141
0.000737823
0.000726695
0.000741554
0.000698332
0.000748143
0.000737823
0.000726696
0.000741554
0.000698332
0.000748143
0.000737823
0.000726696
0.000741554
0.000698332
0.000748143
0.000737823
0.000726695
0.000741554
0.000698332
0.000748143
0.000737821
0.000726694
0.000741552
0.000698331
0.000748141
0.000737819
0.000726692
0.00074155
0.000698329
0.000748139
0.000737816
0.000726689
0.000741547
0.000698326
0.000748137
0.000737812
0.000726685
0.000741542
0.000698321
0.000748131
0.000737807
0.000726681
0.000741537
0.000698317
0.000748126
0.000737817
0.000726691
0.000741537
0.000698316
0.000748111
0.000737815
0.000726689
0.000741534
0.000698315
0.000748108
0.00073812
0.000726995
0.000741777
0.000698522
0.000748202
0.00073576
0.00072447
0.000739722
0.000695509
0.000745251
0.000735465
0.000724173
0.000739491
0.000695312
0.000745164
0.000735468
0.000724175
0.000739494
0.000695313
0.000745167
0.000735458
0.000724165
0.000739495
0.000695315
0.000745183
0.000735463
0.00072417
0.0007395
0.00069532
0.000745188
0.000735467
0.000724174
0.000739506
0.000695324
0.000745194
0.000735471
0.000724177
0.000739509
0.000695327
0.000745197
0.000735473
0.000724179
0.000739511
0.000695329
0.000745199
0.000735474
0.00072418
0.000739512
0.00069533
0.0007452
0.000735475
0.000724181
0.000739513
0.000695331
0.000745201
0.000735475
0.000724181
0.000739513
0.000695331
0.000745201
0.000735474
0.00072418
0.000739512
0.00069533
0.0007452
0.000735473
0.000724179
0.000739511
0.000695329
0.000745199
0.000735471
0.000724177
0.000739509
0.000695327
0.000745197
0.000735467
0.000724174
0.000739506
0.000695324
0.000745194
0.000735463
0.00072417
0.0007395
0.00069532
0.000745188
0.000735458
0.000724165
0.000739495
0.000695315
0.000745183
0.000735468
0.000724175
0.000739494
0.000695313
0.000745167
0.000735465
0.000724173
0.000739491
0.000695312
0.000745164
0.00073576
0.00072447
0.000739722
0.000695509
0.000745251
0.000733406
0.000721953
0.000737667
0.000692426
0.000742181
0.000733121
0.000721665
0.000737448
0.000692237
0.000742099
0.000733123
0.000721668
0.000737451
0.000692239
0.000742102
0.000733114
0.000721658
0.000737453
0.000692241
0.00074212
0.000733119
0.000721663
0.000737458
0.000692246
0.000742125
0.000733124
0.000721667
0.000737464
0.000692251
0.000742132
0.000733127
0.00072167
0.000737467
0.000692254
0.000742135
0.000733129
0.000721672
0.00073747
0.000692256
0.000742137
0.000733131
0.000721674
0.000737471
0.000692257
0.000742138
0.000733132
0.000721674
0.000737472
0.000692258
0.000742139
0.000733132
0.000721674
0.000737472
0.000692258
0.000742139
0.000733131
0.000721674
0.000737471
0.000692257
0.000742138
0.000733129
0.000721672
0.00073747
0.000692256
0.000742137
0.000733127
0.00072167
0.000737467
0.000692254
0.000742135
0.000733124
0.000721667
0.000737464
0.000692251
0.000742132
0.000733119
0.000721663
0.000737458
0.000692246
0.000742125
0.000733114
0.000721658
0.000737453
0.000692241
0.00074212
0.000733123
0.000721668
0.000737451
0.000692239
0.000742102
0.000733121
0.000721665
0.000737448
0.000692237
0.000742099
0.000733406
0.000721953
0.000737667
0.000692426
0.000742181
-1.48959e-06
1.73324e-05
1.45942e-06
3.98625e-07
1.76356e-07
1.6477e-07
1.61809e-07
1.61657e-07
1.61614e-07
1.61612e-07
1.61611e-07
1.61611e-07
1.61602e-07
1.61582e-07
1.61348e-07
1.61059e-07
1.57499e-07
1.55327e-07
1.20598e-07
1.15174e-07
-1.5841e-06
1.73918e-05
1.4701e-06
4.00033e-07
1.76454e-07
1.64769e-07
1.61788e-07
1.61635e-07
1.61591e-07
1.61589e-07
1.61589e-07
1.61588e-07
1.61579e-07
1.61559e-07
1.61324e-07
1.61033e-07
1.57455e-07
1.55277e-07
1.20454e-07
1.15038e-07
-1.58478e-06
1.73925e-05
1.47022e-06
4.00056e-07
1.76456e-07
1.64769e-07
1.61787e-07
1.61635e-07
1.61591e-07
1.61589e-07
1.61588e-07
1.61588e-07
1.61579e-07
1.61559e-07
1.61323e-07
1.61033e-07
1.57454e-07
1.55276e-07
1.20453e-07
1.15036e-07
-1.58688e-06
1.73939e-05
1.47041e-06
4.00097e-07
1.76459e-07
1.64769e-07
1.61787e-07
1.61634e-07
1.6159e-07
1.61588e-07
1.61587e-07
1.61587e-07
1.61578e-07
1.61558e-07
1.61322e-07
1.61032e-07
1.57453e-07
1.55275e-07
1.2045e-07
1.15033e-07
-1.5867e-06
1.7394e-05
1.47042e-06
4.00099e-07
1.76459e-07
1.64769e-07
1.61787e-07
1.61634e-07
1.6159e-07
1.61588e-07
1.61587e-07
1.61587e-07
1.61578e-07
1.61558e-07
1.61322e-07
1.61032e-07
1.57453e-07
1.55275e-07
1.2045e-07
1.15033e-07
-1.58658e-06
1.7394e-05
1.47042e-06
4.001e-07
1.76459e-07
1.64769e-07
1.61787e-07
1.61634e-07
1.6159e-07
1.61588e-07
1.61587e-07
1.61587e-07
1.61578e-07
1.61558e-07
1.61322e-07
1.61032e-07
1.57453e-07
1.55275e-07
1.2045e-07
1.15033e-07
-1.58647e-06
1.7394e-05
1.47043e-06
4.001e-07
1.76459e-07
1.64769e-07
1.61787e-07
1.61634e-07
1.6159e-07
1.61588e-07
1.61587e-07
1.61587e-07
1.61578e-07
1.61558e-07
1.61322e-07
1.61032e-07
1.57453e-07
1.55275e-07
1.2045e-07
1.15033e-07
-1.5864e-06
1.7394e-05
1.47043e-06
4.001e-07
1.76459e-07
1.64769e-07
1.61787e-07
1.61634e-07
1.6159e-07
1.61588e-07
1.61587e-07
1.61587e-07
1.61578e-07
1.61558e-07
1.61322e-07
1.61032e-07
1.57453e-07
1.55275e-07
1.2045e-07
1.15033e-07
-1.58636e-06
1.7394e-05
1.47043e-06
4.001e-07
1.76459e-07
1.64769e-07
1.61787e-07
1.61634e-07
1.6159e-07
1.61588e-07
1.61587e-07
1.61587e-07
1.61578e-07
1.61558e-07
1.61322e-07
1.61032e-07
1.57453e-07
1.55275e-07
1.2045e-07
1.15033e-07
-1.58634e-06
1.7394e-05
1.47043e-06
4.001e-07
1.76459e-07
1.64769e-07
1.61787e-07
1.61634e-07
1.6159e-07
1.61588e-07
1.61587e-07
1.61587e-07
1.61578e-07
1.61558e-07
1.61322e-07
1.61032e-07
1.57453e-07
1.55275e-07
1.2045e-07
1.15033e-07
-1.58634e-06
1.7394e-05
1.47043e-06
4.001e-07
1.76459e-07
1.64769e-07
1.61787e-07
1.61634e-07
1.6159e-07
1.61588e-07
1.61587e-07
1.61587e-07
1.61578e-07
1.61558e-07
1.61322e-07
1.61032e-07
1.57453e-07
1.55275e-07
1.2045e-07
1.15033e-07
-1.58636e-06
1.7394e-05
1.47043e-06
4.001e-07
1.76459e-07
1.64769e-07
1.61787e-07
1.61634e-07
1.6159e-07
1.61588e-07
1.61587e-07
1.61587e-07
1.61578e-07
1.61558e-07
1.61322e-07
1.61032e-07
1.57453e-07
1.55275e-07
1.2045e-07
1.15033e-07
-1.5864e-06
1.7394e-05
1.47043e-06
4.001e-07
1.76459e-07
1.64769e-07
1.61787e-07
1.61634e-07
1.6159e-07
1.61588e-07
1.61587e-07
1.61587e-07
1.61578e-07
1.61558e-07
1.61322e-07
1.61032e-07
1.57453e-07
1.55275e-07
1.2045e-07
1.15033e-07
-1.58647e-06
1.7394e-05
1.47043e-06
4.001e-07
1.76459e-07
1.64769e-07
1.61787e-07
1.61634e-07
1.6159e-07
1.61588e-07
1.61587e-07
1.61587e-07
1.61578e-07
1.61558e-07
1.61322e-07
1.61032e-07
1.57453e-07
1.55275e-07
1.2045e-07
1.15033e-07
-1.58658e-06
1.7394e-05
1.47042e-06
4.001e-07
1.76459e-07
1.64769e-07
1.61787e-07
1.61634e-07
1.6159e-07
1.61588e-07
1.61587e-07
1.61587e-07
1.61578e-07
1.61558e-07
1.61322e-07
1.61032e-07
1.57453e-07
1.55275e-07
1.2045e-07
1.15033e-07
-1.5867e-06
1.7394e-05
1.47042e-06
4.00099e-07
1.76459e-07
1.64769e-07
1.61787e-07
1.61634e-07
1.6159e-07
1.61588e-07
1.61587e-07
1.61587e-07
1.61578e-07
1.61558e-07
1.61322e-07
1.61032e-07
1.57453e-07
1.55275e-07
1.2045e-07
1.15033e-07
-1.58688e-06
1.73939e-05
1.47041e-06
4.00097e-07
1.76459e-07
1.64769e-07
1.61787e-07
1.61634e-07
1.6159e-07
1.61588e-07
1.61587e-07
1.61587e-07
1.61578e-07
1.61558e-07
1.61322e-07
1.61032e-07
1.57453e-07
1.55275e-07
1.2045e-07
1.15033e-07
-1.58478e-06
1.73925e-05
1.47022e-06
4.00056e-07
1.76456e-07
1.64769e-07
1.61787e-07
1.61635e-07
1.61591e-07
1.61589e-07
1.61588e-07
1.61588e-07
1.61579e-07
1.61559e-07
1.61323e-07
1.61033e-07
1.57454e-07
1.55276e-07
1.20453e-07
1.15036e-07
-1.5841e-06
1.73918e-05
1.4701e-06
4.00033e-07
1.76454e-07
1.64769e-07
1.61788e-07
1.61635e-07
1.61591e-07
1.61589e-07
1.61589e-07
1.61588e-07
1.61579e-07
1.61559e-07
1.61324e-07
1.61033e-07
1.57455e-07
1.55277e-07
1.20454e-07
1.15038e-07
-1.48959e-06
1.73324e-05
1.45942e-06
3.98625e-07
1.76356e-07
1.6477e-07
1.61809e-07
1.61657e-07
1.61614e-07
1.61612e-07
1.61611e-07
1.61611e-07
1.61602e-07
1.61582e-07
1.61348e-07
1.61059e-07
1.57499e-07
1.55327e-07
1.20598e-07
1.15174e-07
-1.87599e-06
1.7488e-05
1.4695e-06
4.00811e-07
1.76496e-07
1.64785e-07
1.61899e-07
1.61746e-07
1.61702e-07
1.617e-07
1.61699e-07
1.61699e-07
1.6169e-07
1.6167e-07
1.61433e-07
1.61139e-07
1.57435e-07
1.55267e-07
1.20128e-07
1.14674e-07
-1.97196e-06
1.75483e-05
1.48027e-06
4.02234e-07
1.76596e-07
1.64783e-07
1.61878e-07
1.61724e-07
1.61679e-07
1.61677e-07
1.61677e-07
1.61677e-07
1.61667e-07
1.61647e-07
1.61408e-07
1.61113e-07
1.57392e-07
1.55216e-07
1.19982e-07
1.14535e-07
-1.97276e-06
1.7549e-05
1.48039e-06
4.02257e-07
1.76598e-07
1.64783e-07
1.61878e-07
1.61723e-07
1.61679e-07
1.61677e-07
1.61676e-07
1.61676e-07
1.61667e-07
1.61647e-07
1.61408e-07
1.61113e-07
1.57391e-07
1.55215e-07
1.19981e-07
1.14533e-07
-1.97507e-06
1.75504e-05
1.48059e-06
4.02298e-07
1.766e-07
1.64783e-07
1.61877e-07
1.61722e-07
1.61678e-07
1.61676e-07
1.61676e-07
1.61675e-07
1.61666e-07