/*--------------------------------*- C++ -*----------------------------------*\
  =========                 |
  \\      /  F ield         | OpenFOAM: The Open Source CFD Toolbox
   \\    /   O peration     | Website:  https://openfoam.org
    \\  /    A nd           | Version:  8
     \\/     M anipulation  |
\*---------------------------------------------------------------------------*/
FoamFile
{
    version     2.0;
    format      ascii;
    class       volScalarField;
    location    "0.3";
    object      H2;
}
// * * * * * * * * * * * * * * * * * * * * * * * * * * * * * * * * * * * * * //

dimensions      [0 1 -1 0 0 0 0];

internalField   nonuniform List<scalar> 
180000
(
-1.9713e-50
-8.86091e-45
-4.75537e-39
-2.82017e-33
-1.66609e-27
-2.09294e-50
-9.83591e-45
-5.49419e-39
-3.34599e-33
-2.0085e-27
-2.09543e-50
-9.8553e-45
-5.50873e-39
-3.35629e-33
-2.01519e-27
-2.10108e-50
-9.90011e-45
-5.54273e-39
-3.38061e-33
-2.03111e-27
-2.10102e-50
-9.89951e-45
-5.54226e-39
-3.38027e-33
-2.03089e-27
-2.10099e-50
-9.89923e-45
-5.542e-39
-3.38006e-33
-2.03074e-27
-2.10089e-50
-9.89835e-45
-5.54131e-39
-3.37956e-33
-2.03041e-27
-2.10081e-50
-9.89772e-45
-5.54081e-39
-3.37919e-33
-2.03016e-27
-2.10077e-50
-9.89735e-45
-5.54052e-39
-3.37897e-33
-2.03001e-27
-2.10075e-50
-9.89717e-45
-5.54038e-39
-3.37887e-33
-2.02994e-27
-2.10075e-50
-9.89717e-45
-5.54038e-39
-3.37887e-33
-2.02994e-27
-2.10077e-50
-9.89735e-45
-5.54052e-39
-3.37897e-33
-2.03001e-27
-2.10081e-50
-9.89772e-45
-5.54081e-39
-3.37919e-33
-2.03016e-27
-2.10089e-50
-9.89835e-45
-5.54131e-39
-3.37956e-33
-2.03041e-27
-2.10099e-50
-9.89923e-45
-5.542e-39
-3.38006e-33
-2.03074e-27
-2.10102e-50
-9.89951e-45
-5.54226e-39
-3.38027e-33
-2.03089e-27
-2.10108e-50
-9.90011e-45
-5.54273e-39
-3.38061e-33
-2.03111e-27
-2.09543e-50
-9.8553e-45
-5.50873e-39
-3.35629e-33
-2.01519e-27
-2.09294e-50
-9.83592e-45
-5.49419e-39
-3.34599e-33
-2.0085e-27
-1.9713e-50
-8.86091e-45
-4.75537e-39
-2.82017e-33
-1.66609e-27
-7.08549e-49
-7.22277e-43
-8.03103e-37
-8.59051e-31
-1.18353e-24
-8.12421e-49
-8.42735e-43
-9.50051e-37
-1.02946e-30
-1.43488e-24
-8.1449e-49
-8.45104e-43
-9.52925e-37
-1.03278e-30
-1.43976e-24
-8.19426e-49
-8.50816e-43
-9.59905e-37
-1.04088e-30
-1.45165e-24
-8.19387e-49
-8.50762e-43
-9.59831e-37
-1.04079e-30
-1.45151e-24
-8.19387e-49
-8.50746e-43
-9.59798e-37
-1.04073e-30
-1.4514e-24
-8.1931e-49
-8.50648e-43
-9.5967e-37
-1.04057e-30
-1.45116e-24
-8.1926e-49
-8.50579e-43
-9.59576e-37
-1.04045e-30
-1.45097e-24
-8.19228e-49
-8.50537e-43
-9.59521e-37
-1.04038e-30
-1.45087e-24
-8.19214e-49
-8.50518e-43
-9.59495e-37
-1.04035e-30
-1.45082e-24
-8.19214e-49
-8.50518e-43
-9.59495e-37
-1.04035e-30
-1.45082e-24
-8.19228e-49
-8.50537e-43
-9.59521e-37
-1.04038e-30
-1.45087e-24
-8.1926e-49
-8.50579e-43
-9.59576e-37
-1.04045e-30
-1.45097e-24
-8.1931e-49
-8.50648e-43
-9.5967e-37
-1.04057e-30
-1.45116e-24
-8.19387e-49
-8.50746e-43
-9.59798e-37
-1.04073e-30
-1.4514e-24
-8.19387e-49
-8.50762e-43
-9.59831e-37
-1.04079e-30
-1.45151e-24
-8.19426e-49
-8.50816e-43
-9.59905e-37
-1.04088e-30
-1.45165e-24
-8.1449e-49
-8.45105e-43
-9.52926e-37
-1.03278e-30
-1.43976e-24
-8.12421e-49
-8.42735e-43
-9.50051e-37
-1.02946e-30
-1.43488e-24
-7.08549e-49
-7.22277e-43
-8.03103e-37
-8.59051e-31
-1.18353e-24
-3.83293e-46
-4.15303e-40
-4.88412e-34
-5.56375e-28
-8.099e-22
-4.36117e-46
-4.79331e-40
-5.70247e-34
-6.56515e-28
-9.64786e-22
-4.37111e-46
-4.80513e-40
-5.7174e-34
-6.58324e-28
-9.6755e-22
-4.39583e-46
-4.83493e-40
-5.75543e-34
-6.62961e-28
-9.74667e-22
-4.39562e-46
-4.83462e-40
-5.75499e-34
-6.62901e-28
-9.74569e-22
-4.39562e-46
-4.83453e-40
-5.75479e-34
-6.62865e-28
-9.745e-22
-4.39523e-46
-4.83401e-40
-5.75408e-34
-6.62772e-28
-9.74351e-22
-4.39498e-46
-4.83365e-40
-5.75356e-34
-6.62702e-28
-9.74237e-22
-4.39482e-46
-4.83343e-40
-5.75326e-34
-6.62662e-28
-9.74172e-22
-4.39475e-46
-4.83333e-40
-5.75311e-34
-6.62642e-28
-9.74139e-22
-4.39475e-46
-4.83333e-40
-5.75311e-34
-6.62642e-28
-9.74139e-22
-4.39482e-46
-4.83343e-40
-5.75326e-34
-6.62662e-28
-9.74172e-22
-4.39498e-46
-4.83365e-40
-5.75356e-34
-6.62702e-28
-9.74237e-22
-4.39523e-46
-4.83401e-40
-5.75408e-34
-6.62772e-28
-9.74351e-22
-4.39562e-46
-4.83453e-40
-5.75479e-34
-6.62865e-28
-9.745e-22
-4.39562e-46
-4.83462e-40
-5.75499e-34
-6.62901e-28
-9.74569e-22
-4.39583e-46
-4.83493e-40
-5.75543e-34
-6.62961e-28
-9.74667e-22
-4.37111e-46
-4.80513e-40
-5.7174e-34
-6.58324e-28
-9.6755e-22
-4.36118e-46
-4.79331e-40
-5.70247e-34
-6.56515e-28
-9.64786e-22
-3.83293e-46
-4.15303e-40
-4.88412e-34
-5.56375e-28
-8.099e-22
-1.24423e-43
-1.31651e-37
-1.52367e-31
-1.71082e-25
-2.45926e-19
-1.3918e-43
-1.49474e-37
-1.74975e-31
-1.98475e-25
-2.87913e-19
-1.39447e-43
-1.49788e-37
-1.75367e-31
-1.98944e-25
-2.8862e-19
-1.40134e-43
-1.50608e-37
-1.76402e-31
-2.00189e-25
-2.9051e-19
-1.40129e-43
-1.50599e-37
-1.76389e-31
-2.00172e-25
-2.90482e-19
-1.40129e-43
-1.50596e-37
-1.76383e-31
-2.00161e-25
-2.90461e-19
-1.40119e-43
-1.50582e-37
-1.76364e-31
-2.00136e-25
-2.90421e-19
-1.40112e-43
-1.50572e-37
-1.76349e-31
-2.00117e-25
-2.9039e-19
-1.40108e-43
-1.50566e-37
-1.76341e-31
-2.00106e-25
-2.90372e-19
-1.40106e-43
-1.50564e-37
-1.76337e-31
-2.001e-25
-2.90363e-19
-1.40106e-43
-1.50564e-37
-1.76337e-31
-2.001e-25
-2.90363e-19
-1.40108e-43
-1.50566e-37
-1.76341e-31
-2.00106e-25
-2.90372e-19
-1.40112e-43
-1.50572e-37
-1.76349e-31
-2.00117e-25
-2.9039e-19
-1.40119e-43
-1.50582e-37
-1.76364e-31
-2.00136e-25
-2.90421e-19
-1.40129e-43
-1.50596e-37
-1.76383e-31
-2.00161e-25
-2.90461e-19
-1.40129e-43
-1.50599e-37
-1.76389e-31
-2.00172e-25
-2.90482e-19
-1.40134e-43
-1.50608e-37
-1.76402e-31
-2.00189e-25
-2.9051e-19
-1.39447e-43
-1.49788e-37
-1.75367e-31
-1.98944e-25
-2.88621e-19
-1.3918e-43
-1.49474e-37
-1.74975e-31
-1.98475e-25
-2.87913e-19
-1.24423e-43
-1.31651e-37
-1.52367e-31
-1.71082e-25
-2.45926e-19
-2.71127e-41
-2.66179e-35
-2.9214e-29
-3.12653e-23
-4.32918e-17
-2.96119e-41
-2.96083e-35
-3.29185e-29
-3.56204e-23
-4.97953e-17
-2.96572e-41
-2.96599e-35
-3.29808e-29
-3.56923e-23
-4.99007e-17
-2.97758e-41
-2.97977e-35
-3.31495e-29
-3.58884e-23
-5.01894e-17
-2.9775e-41
-2.97963e-35
-3.31474e-29
-3.58855e-23
-5.01848e-17
-2.97754e-41
-2.9796e-35
-3.31465e-29
-3.58837e-23
-5.01814e-17
-2.97739e-41
-2.97937e-35
-3.31433e-29
-3.58796e-23
-5.0175e-17
-2.97729e-41
-2.97921e-35
-3.3141e-29
-3.58765e-23
-5.01701e-17
-2.97723e-41
-2.97911e-35
-3.31396e-29
-3.58748e-23
-5.01673e-17
-2.9772e-41
-2.97907e-35
-3.3139e-29
-3.58739e-23
-5.01659e-17
-2.9772e-41
-2.97907e-35
-3.3139e-29
-3.58739e-23
-5.01659e-17
-2.97723e-41
-2.97911e-35
-3.31396e-29
-3.58748e-23
-5.01673e-17
-2.97729e-41
-2.97921e-35
-3.3141e-29
-3.58765e-23
-5.01701e-17
-2.97739e-41
-2.97937e-35
-3.31433e-29
-3.58796e-23
-5.0175e-17
-2.97754e-41
-2.9796e-35
-3.31465e-29
-3.58837e-23
-5.01814e-17
-2.9775e-41
-2.97963e-35
-3.31474e-29
-3.58855e-23
-5.01848e-17
-2.97758e-41
-2.97977e-35
-3.31495e-29
-3.58884e-23
-5.01894e-17
-2.96572e-41
-2.96599e-35
-3.29808e-29
-3.56923e-23
-4.99007e-17
-2.9612e-41
-2.96083e-35
-3.29185e-29
-3.56204e-23
-4.97953e-17
-2.71127e-41
-2.66179e-35
-2.9214e-29
-3.12653e-23
-4.32918e-17
-4.76204e-39
-4.05518e-33
-4.04648e-27
-4.0047e-21
-5.24899e-15
-5.02634e-39
-4.38894e-33
-4.45597e-27
-4.47146e-21
-5.92429e-15
-5.03162e-39
-4.39481e-33
-4.46283e-27
-4.47905e-21
-5.935e-15
-5.04548e-39
-4.41074e-33
-4.48171e-27
-4.50008e-21
-5.96477e-15
-5.04551e-39
-4.41062e-33
-4.48149e-27
-4.49976e-21
-5.96427e-15
-5.04569e-39
-4.41063e-33
-4.4814e-27
-4.49956e-21
-5.96389e-15
-5.04559e-39
-4.41039e-33
-4.48105e-27
-4.49911e-21
-5.96321e-15
-5.04555e-39
-4.41024e-33
-4.4808e-27
-4.49878e-21
-5.96269e-15
-5.04551e-39
-4.41014e-33
-4.48066e-27
-4.49858e-21
-5.96239e-15
-5.0455e-39
-4.4101e-33
-4.48059e-27
-4.49849e-21
-5.96224e-15
-5.0455e-39
-4.4101e-33
-4.48059e-27
-4.49849e-21
-5.96224e-15
-5.04551e-39
-4.41014e-33
-4.48066e-27
-4.49858e-21
-5.96239e-15
-5.04555e-39
-4.41024e-33
-4.4808e-27
-4.49878e-21
-5.96269e-15
-5.04559e-39
-4.41039e-33
-4.48105e-27
-4.49911e-21
-5.96321e-15
-5.04569e-39
-4.41063e-33
-4.4814e-27
-4.49956e-21
-5.96389e-15
-5.04551e-39
-4.41062e-33
-4.48149e-27
-4.49976e-21
-5.96427e-15
-5.04548e-39
-4.41074e-33
-4.48171e-27
-4.50008e-21
-5.96477e-15
-5.03162e-39
-4.39481e-33
-4.46283e-27
-4.47905e-21
-5.935e-15
-5.02635e-39
-4.38894e-33
-4.45597e-27
-4.47146e-21
-5.92429e-15
-4.76204e-39
-4.05518e-33
-4.04648e-27
-4.0047e-21
-5.24899e-15
-8.28351e-37
-5.65265e-31
-4.78428e-25
-4.15765e-19
-5.03645e-13
-8.37605e-37
-5.88544e-31
-5.10555e-25
-4.5275e-19
-5.55656e-13
-8.38023e-37
-5.89032e-31
-5.11124e-25
-4.53358e-19
-5.56475e-13
-8.39037e-37
-5.90344e-31
-5.12699e-25
-4.55055e-19
-5.58766e-13
-8.39083e-37
-5.9035e-31
-5.12687e-25
-4.55031e-19
-5.58728e-13
-8.39142e-37
-5.90369e-31
-5.12687e-25
-4.55016e-19
-5.58697e-13
-8.39163e-37
-5.9036e-31
-5.12662e-25
-4.54981e-19
-5.58645e-13
-8.39185e-37
-5.90356e-31
-5.12645e-25
-4.54954e-19
-5.58603e-13
-8.39196e-37
-5.90353e-31
-5.12634e-25
-4.54939e-19
-5.5858e-13
-8.39202e-37
-5.90352e-31
-5.12629e-25
-4.54931e-19
-5.58568e-13
-8.39202e-37
-5.90352e-31
-5.12629e-25
-4.54931e-19
-5.58568e-13
-8.39196e-37
-5.90353e-31
-5.12634e-25
-4.54939e-19
-5.5858e-13
-8.39185e-37
-5.90356e-31
-5.12645e-25
-4.54954e-19
-5.58603e-13
-8.39163e-37
-5.9036e-31
-5.12662e-25
-4.54981e-19
-5.58645e-13
-8.39142e-37
-5.90369e-31
-5.12687e-25
-4.55016e-19
-5.58697e-13
-8.39083e-37
-5.9035e-31
-5.12687e-25
-4.55031e-19
-5.58728e-13
-8.39037e-37
-5.90344e-31
-5.12699e-25
-4.55055e-19
-5.58766e-13
-8.38023e-37
-5.89032e-31
-5.11124e-25
-4.53358e-19
-5.56475e-13
-8.37605e-37
-5.88544e-31
-5.10555e-25
-4.5275e-19
-5.55656e-13
-8.28351e-37
-5.65265e-31
-4.78428e-25
-4.15765e-19
-5.03645e-13
-1.5824e-34
-8.81176e-29
-6.01294e-23
-4.21956e-17
-4.47618e-11
-1.54682e-34
-8.78587e-29
-6.14097e-23
-4.42075e-17
-4.76626e-11
-1.54693e-34
-8.78828e-29
-6.14431e-23
-4.42439e-17
-4.77092e-11
-1.54687e-34
-8.79388e-29
-6.15328e-23
-4.43446e-17
-4.78394e-11
-1.54702e-34
-8.7944e-29
-6.15341e-23
-4.43438e-17
-4.78375e-11
-1.54719e-34
-8.79504e-29
-6.15365e-23
-4.43436e-17
-4.78361e-11
-1.54729e-34
-8.79532e-29
-6.15364e-23
-4.43419e-17
-4.78332e-11
-1.54737e-34
-8.79559e-29
-6.15366e-23
-4.43406e-17
-4.78309e-11
-1.54742e-34
-8.79572e-29
-6.15365e-23
-4.43398e-17
-4.78297e-11
-1.54744e-34
-8.7958e-29
-6.15366e-23
-4.43395e-17
-4.7829e-11
-1.54744e-34
-8.7958e-29
-6.15366e-23
-4.43395e-17
-4.7829e-11
-1.54742e-34
-8.79572e-29
-6.15365e-23
-4.43398e-17
-4.78297e-11
-1.54737e-34
-8.79559e-29
-6.15366e-23
-4.43406e-17
-4.78309e-11
-1.54729e-34
-8.79532e-29
-6.15364e-23
-4.43419e-17
-4.78332e-11
-1.54719e-34
-8.79504e-29
-6.15365e-23
-4.43436e-17
-4.78361e-11
-1.54702e-34
-8.7944e-29
-6.15341e-23
-4.43438e-17
-4.78375e-11
-1.54687e-34
-8.79388e-29
-6.15328e-23
-4.43446e-17
-4.78394e-11
-1.54693e-34
-8.78828e-29
-6.14431e-23
-4.42439e-17
-4.77092e-11
-1.54682e-34
-8.78587e-29
-6.14097e-23
-4.42075e-17
-4.76626e-11
-1.5824e-34
-8.81176e-29
-6.01294e-23
-4.21956e-17
-4.47618e-11
-2.8224e-32
-1.49647e-26
-9.19449e-21
-5.31916e-15
-4.61636e-09
-2.72722e-32
-1.45571e-26
-9.0073e-21
-5.2513e-15
-4.60672e-09
-2.72696e-32
-1.45559e-26
-9.00682e-21
-5.2512e-15
-4.60705e-09
-2.72559e-32
-1.45506e-26
-9.005e-21
-5.2509e-15
-4.60809e-09
-2.7259e-32
-1.45519e-26
-9.00561e-21
-5.25111e-15
-4.60818e-09
-2.72622e-32
-1.45534e-26
-9.00636e-21
-5.2514e-15
-4.60832e-09
-2.72643e-32
-1.45543e-26
-9.00678e-21
-5.25154e-15
-4.60836e-09
-2.72662e-32
-1.45551e-26
-9.00717e-21
-5.25168e-15
-4.60841e-09
-2.72672e-32
-1.45555e-26
-9.00736e-21
-5.25174e-15
-4.60843e-09
-2.72677e-32
-1.45557e-26
-9.00746e-21
-5.25178e-15
-4.60844e-09
-2.72677e-32
-1.45557e-26
-9.00746e-21
-5.25178e-15
-4.60844e-09
-2.72672e-32
-1.45555e-26
-9.00736e-21
-5.25174e-15
-4.60843e-09
-2.72662e-32
-1.45551e-26
-9.00717e-21
-5.25168e-15
-4.60841e-09
-2.72643e-32
-1.45543e-26
-9.00678e-21
-5.25154e-15
-4.60836e-09
-2.72622e-32
-1.45534e-26
-9.00636e-21
-5.2514e-15
-4.60832e-09
-2.7259e-32
-1.45519e-26
-9.00561e-21
-5.25111e-15
-4.60818e-09
-2.72559e-32
-1.45506e-26
-9.005e-21
-5.2509e-15
-4.60809e-09
-2.72696e-32
-1.45559e-26
-9.00682e-21
-5.2512e-15
-4.60705e-09
-2.72722e-32
-1.45571e-26
-9.0073e-21
-5.2513e-15
-4.60672e-09
-2.8224e-32
-1.49647e-26
-9.19449e-21
-5.31916e-15
-4.61636e-09
-3.03769e-30
-1.65134e-24
-1.0331e-18
-6.08193e-13
-5.27848e-07
-2.93198e-30
-1.60322e-24
-1.00916e-18
-5.97657e-13
-5.22358e-07
-2.93165e-30
-1.60304e-24
-1.00907e-18
-5.97601e-13
-5.22319e-07
-2.93007e-30
-1.60234e-24
-1.00874e-18
-5.97438e-13
-5.22212e-07
-2.9304e-30
-1.60249e-24
-1.00882e-18
-5.97467e-13
-5.22229e-07
-2.93074e-30
-1.60265e-24
-1.0089e-18
-5.97503e-13
-5.2225e-07
-2.93098e-30
-1.60276e-24
-1.00896e-18
-5.97524e-13
-5.22263e-07
-2.93118e-30
-1.60285e-24
-1.009e-18
-5.97542e-13
-5.22273e-07
-2.93129e-30
-1.60289e-24
-1.00903e-18
-5.97552e-13
-5.22279e-07
-2.93134e-30
-1.60292e-24
-1.00904e-18
-5.97557e-13
-5.22282e-07
-2.93134e-30
-1.60292e-24
-1.00904e-18
-5.97557e-13
-5.22282e-07
-2.93129e-30
-1.60289e-24
-1.00903e-18
-5.97552e-13
-5.22279e-07
-2.93118e-30
-1.60285e-24
-1.009e-18
-5.97542e-13
-5.22273e-07
-2.93098e-30
-1.60276e-24
-1.00896e-18
-5.97524e-13
-5.22263e-07
-2.93074e-30
-1.60265e-24
-1.0089e-18
-5.97503e-13
-5.2225e-07
-2.9304e-30
-1.60249e-24
-1.00882e-18
-5.97467e-13
-5.22229e-07
-2.93007e-30
-1.60234e-24
-1.00874e-18
-5.97438e-13
-5.22212e-07
-2.93165e-30
-1.60304e-24
-1.00907e-18
-5.97601e-13
-5.22319e-07
-2.93198e-30
-1.60322e-24
-1.00916e-18
-5.97657e-13
-5.22358e-07
-3.03769e-30
-1.65134e-24
-1.0331e-18
-6.08193e-13
-5.27848e-07
-1.57468e-29
-6.78009e-24
-3.15767e-18
-1.22853e-12
-5.25154e-07
-1.52136e-29
-6.58833e-24
-3.08719e-18
-1.20824e-12
-5.20282e-07
-1.52121e-29
-6.5877e-24
-3.08693e-18
-1.20814e-12
-5.20249e-07
-1.52046e-29
-6.58511e-24
-3.08607e-18
-1.20785e-12
-5.2016e-07
-1.52063e-29
-6.5857e-24
-3.08629e-18
-1.2079e-12
-5.20176e-07
-1.5208e-29
-6.58634e-24
-3.08654e-18
-1.20797e-12
-5.20195e-07
-1.52092e-29
-6.58676e-24
-3.0867e-18
-1.20801e-12
-5.20206e-07
-1.52102e-29
-6.58711e-24
-3.08683e-18
-1.20805e-12
-5.20216e-07
-1.52107e-29
-6.5873e-24
-3.08689e-18
-1.20806e-12
-5.20221e-07
-1.5211e-29
-6.5874e-24
-3.08693e-18
-1.20807e-12
-5.20223e-07
-1.5211e-29
-6.5874e-24
-3.08693e-18
-1.20807e-12
-5.20223e-07
-1.52107e-29
-6.5873e-24
-3.08689e-18
-1.20806e-12
-5.20221e-07
-1.52102e-29
-6.58711e-24
-3.08683e-18
-1.20805e-12
-5.20216e-07
-1.52092e-29
-6.58676e-24
-3.0867e-18
-1.20801e-12
-5.20206e-07
-1.5208e-29
-6.58634e-24
-3.08654e-18
-1.20797e-12
-5.20195e-07
-1.52063e-29
-6.5857e-24
-3.08629e-18
-1.2079e-12
-5.20176e-07
-1.52046e-29
-6.58511e-24
-3.08607e-18
-1.20785e-12
-5.2016e-07
-1.52121e-29
-6.5877e-24
-3.08693e-18
-1.20814e-12
-5.20249e-07
-1.52136e-29
-6.58833e-24
-3.08719e-18
-1.20824e-12
-5.20282e-07
-1.57468e-29
-6.78009e-24
-3.15767e-18
-1.22853e-12
-5.25154e-07
-4.94758e-29
-1.75107e-23
-6.45247e-18
-1.86114e-12
-5.20159e-07
-4.78505e-29
-1.70312e-23
-6.31403e-18
-1.83188e-12
-5.1588e-07
-4.78466e-29
-1.70299e-23
-6.31359e-18
-1.83174e-12
-5.15852e-07
-4.78248e-29
-1.70238e-23
-6.31203e-18
-1.83135e-12
-5.15779e-07
-4.78301e-29
-1.70253e-23
-6.31248e-18
-1.83144e-12
-5.15794e-07
-4.78351e-29
-1.70269e-23
-6.31298e-18
-1.83153e-12
-5.15811e-07
-4.78387e-29
-1.70279e-23
-6.31328e-18
-1.83159e-12
-5.15821e-07
-4.78416e-29
-1.70288e-23
-6.31353e-18
-1.83164e-12
-5.15829e-07
-4.78432e-29
-1.70292e-23
-6.31366e-18
-1.83167e-12
-5.15833e-07
-4.78441e-29
-1.70295e-23
-6.31373e-18
-1.83168e-12
-5.15835e-07
-4.78441e-29
-1.70295e-23
-6.31373e-18
-1.83168e-12
-5.15835e-07
-4.78432e-29
-1.70292e-23
-6.31366e-18
-1.83167e-12
-5.15833e-07
-4.78416e-29
-1.70288e-23
-6.31353e-18
-1.83164e-12
-5.15829e-07
-4.78387e-29
-1.70279e-23
-6.31328e-18
-1.83159e-12
-5.15821e-07
-4.78351e-29
-1.70269e-23
-6.31298e-18
-1.83153e-12
-5.15811e-07
-4.78301e-29
-1.70253e-23
-6.31248e-18
-1.83144e-12
-5.15794e-07
-4.78248e-29
-1.70238e-23
-6.31203e-18
-1.83135e-12
-5.15779e-07
-4.78466e-29
-1.70299e-23
-6.31359e-18
-1.83174e-12
-5.15852e-07
-4.78505e-29
-1.70312e-23
-6.31403e-18
-1.83188e-12
-5.1588e-07
-4.94758e-29
-1.75107e-23
-6.45247e-18
-1.86114e-12
-5.20159e-07
-1.20814e-28
-3.6134e-23
-1.09627e-17
-2.49953e-12
-5.12763e-07
-1.16977e-28
-3.51788e-23
-1.07373e-17
-2.46222e-12
-5.09056e-07
-1.16969e-28
-3.51764e-23
-1.07367e-17
-2.46206e-12
-5.09034e-07
-1.1692e-28
-3.51651e-23
-1.07344e-17
-2.4616e-12
-5.08974e-07
-1.16933e-28
-3.51681e-23
-1.07351e-17
-2.46171e-12
-5.08987e-07
-1.16944e-28
-3.51712e-23
-1.07359e-17
-2.46183e-12
-5.09001e-07
-1.16953e-28
-3.51732e-23
-1.07364e-17
-2.46191e-12
-5.09009e-07
-1.16959e-28
-3.51749e-23
-1.07368e-17
-2.46197e-12
-5.09016e-07
-1.16963e-28
-3.51758e-23
-1.0737e-17
-2.462e-12
-5.0902e-07
-1.16965e-28
-3.51763e-23
-1.07371e-17
-2.46202e-12
-5.09022e-07
-1.16965e-28
-3.51763e-23
-1.07371e-17
-2.46202e-12
-5.09022e-07
-1.16963e-28
-3.51758e-23
-1.0737e-17
-2.462e-12
-5.0902e-07
-1.16959e-28
-3.51749e-23
-1.07368e-17
-2.46197e-12
-5.09016e-07
-1.16953e-28
-3.51732e-23
-1.07364e-17
-2.46191e-12
-5.09009e-07
-1.16944e-28
-3.51712e-23
-1.07359e-17
-2.46183e-12
-5.09001e-07
-1.16933e-28
-3.51681e-23
-1.07351e-17
-2.46171e-12
-5.08987e-07
-1.1692e-28
-3.51651e-23
-1.07344e-17
-2.4616e-12
-5.08974e-07
-1.16969e-28
-3.51764e-23
-1.07367e-17
-2.46206e-12
-5.09034e-07
-1.16977e-28
-3.51788e-23
-1.07373e-17
-2.46222e-12
-5.09056e-07
-1.20814e-28
-3.6134e-23
-1.09627e-17
-2.49953e-12
-5.12763e-07
-2.51744e-28
-6.50112e-23
-1.66993e-17
-3.13612e-12
-5.02937e-07
-2.44053e-28
-6.33582e-23
-1.63714e-17
-3.09181e-12
-4.99781e-07
-2.4404e-28
-6.33548e-23
-1.63707e-17
-3.09164e-12
-4.99764e-07
-2.43945e-28
-6.33363e-23
-1.63676e-17
-3.09113e-12
-4.99714e-07
-2.4397e-28
-6.33416e-23
-1.63687e-17
-3.09126e-12
-4.99726e-07
-2.43993e-28
-6.33467e-23
-1.63698e-17
-3.0914e-12
-4.99737e-07
-2.4401e-28
-6.33502e-23
-1.63705e-17
-3.09149e-12
-4.99745e-07
-2.44023e-28
-6.3353e-23
-1.63711e-17
-3.09156e-12
-4.9975e-07
-2.4403e-28
-6.33546e-23
-1.63714e-17
-3.0916e-12
-4.99753e-07
-2.44034e-28
-6.33554e-23
-1.63716e-17
-3.09162e-12
-4.99755e-07
-2.44034e-28
-6.33554e-23
-1.63716e-17
-3.09162e-12
-4.99755e-07
-2.4403e-28
-6.33546e-23
-1.63714e-17
-3.0916e-12
-4.99753e-07
-2.44023e-28
-6.3353e-23
-1.63711e-17
-3.09156e-12
-4.9975e-07
-2.4401e-28
-6.33502e-23
-1.63705e-17
-3.09149e-12
-4.99745e-07
-2.43993e-28
-6.33467e-23
-1.63698e-17
-3.0914e-12
-4.99737e-07
-2.4397e-28
-6.33416e-23
-1.63687e-17
-3.09126e-12
-4.99726e-07
-2.43945e-28
-6.33363e-23
-1.63676e-17
-3.09113e-12
-4.99714e-07
-2.4404e-28
-6.33548e-23
-1.63707e-17
-3.09164e-12
-4.99764e-07
-2.44053e-28
-6.33582e-23
-1.63714e-17
-3.09181e-12
-4.99781e-07
-2.51744e-28
-6.50112e-23
-1.66993e-17
-3.13612e-12
-5.02937e-07
-4.68569e-28
-1.06374e-22
-2.36248e-17
-3.76212e-12
-4.90705e-07
-4.54893e-28
-1.03786e-22
-2.31842e-17
-3.71204e-12
-4.88079e-07
-4.54873e-28
-1.03782e-22
-2.31834e-17
-3.71188e-12
-4.88066e-07
-4.54713e-28
-1.03754e-22
-2.31796e-17
-3.71134e-12
-4.88025e-07
-4.54757e-28
-1.03763e-22
-2.31811e-17
-3.71149e-12
-4.88034e-07
-4.54795e-28
-1.03771e-22
-2.31826e-17
-3.71164e-12
-4.88044e-07
-4.54825e-28
-1.03776e-22
-2.31835e-17
-3.71174e-12
-4.88049e-07
-4.54847e-28
-1.0378e-22
-2.31843e-17
-3.71182e-12
-4.88054e-07
-4.5486e-28
-1.03783e-22
-2.31847e-17
-3.71186e-12
-4.88056e-07
-4.54867e-28
-1.03784e-22
-2.31849e-17
-3.71188e-12
-4.88057e-07
-4.54867e-28
-1.03784e-22
-2.31849e-17
-3.71188e-12
-4.88057e-07
-4.5486e-28
-1.03783e-22
-2.31847e-17
-3.71186e-12
-4.88056e-07
-4.54847e-28
-1.0378e-22
-2.31843e-17
-3.71182e-12
-4.88054e-07
-4.54825e-28
-1.03776e-22
-2.31835e-17
-3.71174e-12
-4.88049e-07
-4.54795e-28
-1.03771e-22
-2.31826e-17
-3.71164e-12
-4.88044e-07
-4.54757e-28
-1.03763e-22
-2.31811e-17
-3.71149e-12
-4.88034e-07
-4.54713e-28
-1.03754e-22
-2.31796e-17
-3.71134e-12
-4.88025e-07
-4.54873e-28
-1.03782e-22
-2.31834e-17
-3.71188e-12
-4.88066e-07
-4.54893e-28
-1.03786e-22
-2.31842e-17
-3.71204e-12
-4.88079e-07
-4.68569e-28
-1.06374e-22
-2.36248e-17
-3.76212e-12
-4.90705e-07
-7.98817e-28
-1.61991e-22
-3.16346e-17
-4.36749e-12
-4.76125e-07
-7.76751e-28
-1.58251e-22
-3.10785e-17
-4.31309e-12
-4.74012e-07
-7.76724e-28
-1.58246e-22
-3.10777e-17
-4.31293e-12
-4.74002e-07
-7.76476e-28
-1.58208e-22
-3.10733e-17
-4.31237e-12
-4.73966e-07
-7.76547e-28
-1.5822e-22
-3.10751e-17
-4.31254e-12
-4.73974e-07
-7.76607e-28
-1.58231e-22
-3.1077e-17
-4.3127e-12
-4.73981e-07
-7.76653e-28
-1.58238e-22
-3.10781e-17
-4.3128e-12
-4.73985e-07
-7.76689e-28
-1.58244e-22
-3.1079e-17
-4.31289e-12
-4.73988e-07
-7.76709e-28
-1.58248e-22
-3.10795e-17
-4.31293e-12
-4.7399e-07
-7.7672e-28
-1.58249e-22
-3.10798e-17
-4.31295e-12
-4.73991e-07
-7.7672e-28
-1.58249e-22
-3.10798e-17
-4.31295e-12
-4.73991e-07
-7.76709e-28
-1.58248e-22
-3.10795e-17
-4.31293e-12
-4.7399e-07
-7.76689e-28
-1.58244e-22
-3.1079e-17
-4.31289e-12
-4.73988e-07
-7.76653e-28
-1.58238e-22
-3.10781e-17
-4.3128e-12
-4.73985e-07
-7.76607e-28
-1.58231e-22
-3.1077e-17
-4.3127e-12
-4.73981e-07
-7.76547e-28
-1.5822e-22
-3.10751e-17
-4.31254e-12
-4.73974e-07
-7.76476e-28
-1.58208e-22
-3.10733e-17
-4.31237e-12
-4.73966e-07
-7.76724e-28
-1.58246e-22
-3.10777e-17
-4.31293e-12
-4.74002e-07
-7.76752e-28
-1.58251e-22
-3.10785e-17
-4.31309e-12
-4.74012e-07
-7.98817e-28
-1.61991e-22
-3.16346e-17
-4.36749e-12
-4.76125e-07
-1.26552e-27
-2.32684e-22
-4.05324e-17
-4.9407e-12
-4.59278e-07
-1.23284e-27
-2.27638e-22
-3.9868e-17
-4.88366e-12
-4.5766e-07
-1.23281e-27
-2.27632e-22
-3.98672e-17
-4.88351e-12
-4.57652e-07
-1.23245e-27
-2.27583e-22
-3.98624e-17
-4.88295e-12
-4.57621e-07
-1.23256e-27
-2.27599e-22
-3.98646e-17
-4.88312e-12
-4.57627e-07
-1.23264e-27
-2.27613e-22
-3.98667e-17
-4.88328e-12
-4.57631e-07
-1.23271e-27
-2.27624e-22
-3.98681e-17
-4.88339e-12
-4.57634e-07
-1.23276e-27
-2.27632e-22
-3.98691e-17
-4.88347e-12
-4.57636e-07
-1.23279e-27
-2.27636e-22
-3.98697e-17
-4.88351e-12
-4.57637e-07
-1.23281e-27
-2.27638e-22
-3.987e-17
-4.88353e-12
-4.57638e-07
-1.23281e-27
-2.27638e-22
-3.987e-17
-4.88353e-12
-4.57638e-07
-1.23279e-27
-2.27636e-22
-3.98697e-17
-4.88351e-12
-4.57637e-07
-1.23276e-27
-2.27632e-22
-3.98691e-17
-4.88347e-12
-4.57636e-07
-1.23271e-27
-2.27624e-22
-3.98681e-17
-4.88339e-12
-4.57634e-07
-1.23264e-27
-2.27613e-22
-3.98667e-17
-4.88328e-12
-4.57631e-07
-1.23256e-27
-2.27599e-22
-3.98646e-17
-4.88312e-12
-4.57627e-07
-1.23245e-27
-2.27583e-22
-3.98624e-17
-4.88295e-12
-4.57621e-07
-1.23281e-27
-2.27632e-22
-3.98672e-17
-4.88351e-12
-4.57652e-07
-1.23284e-27
-2.27638e-22
-3.9868e-17
-4.88366e-12
-4.5766e-07
-1.26552e-27
-2.32684e-22
-4.05324e-17
-4.9407e-12
-4.59278e-07
-1.87919e-27
-3.1772e-22
-5.00055e-17
-5.46844e-12
-4.40241e-07
-1.83453e-27
-3.11341e-22
-4.92525e-17
-5.4107e-12
-4.39103e-07
-1.83448e-27
-3.11334e-22
-4.92519e-17
-5.41057e-12
-4.39096e-07
-1.83402e-27
-3.11275e-22
-4.92467e-17
-5.41001e-12
-4.39068e-07
-1.83416e-27
-3.11295e-22
-4.92492e-17
-5.41018e-12
-4.39072e-07
-1.83428e-27
-3.11313e-22
-4.92515e-17
-5.41033e-12
-4.39073e-07
-1.83437e-27
-3.11325e-22
-4.9253e-17
-5.41044e-12
-4.39075e-07
-1.83444e-27
-3.11335e-22
-4.92542e-17
-5.41052e-12
-4.39076e-07
-1.83448e-27
-3.11341e-22
-4.92548e-17
-5.41056e-12
-4.39077e-07
-1.8345e-27
-3.11343e-22
-4.92552e-17
-5.41058e-12
-4.39077e-07
-1.8345e-27
-3.11343e-22
-4.92552e-17
-5.41058e-12
-4.39077e-07
-1.83448e-27
-3.11341e-22
-4.92548e-17
-5.41056e-12
-4.39077e-07
-1.83444e-27
-3.11335e-22
-4.92542e-17
-5.41052e-12
-4.39076e-07
-1.83437e-27
-3.11325e-22
-4.9253e-17
-5.41044e-12
-4.39075e-07
-1.83428e-27
-3.11313e-22
-4.92515e-17
-5.41033e-12
-4.39073e-07
-1.83416e-27
-3.11295e-22
-4.92492e-17
-5.41018e-12
-4.39072e-07
-1.83402e-27
-3.11275e-22
-4.92467e-17
-5.41001e-12
-4.39068e-07
-1.83448e-27
-3.11334e-22
-4.92519e-17
-5.41057e-12
-4.39096e-07
-1.83453e-27
-3.11341e-22
-4.92525e-17
-5.4107e-12
-4.39103e-07
-1.87919e-27
-3.1772e-22
-5.00055e-17
-5.46844e-12
-4.40241e-07
-2.62919e-27
-4.14234e-22
-5.96075e-17
-5.93529e-12
-4.19056e-07
-2.5728e-27
-4.06681e-22
-5.88003e-17
-5.87911e-12
-4.18386e-07
-2.57275e-27
-4.06674e-22
-5.87997e-17
-5.87899e-12
-4.1838e-07
-2.57219e-27
-4.06606e-22
-5.87945e-17
-5.87843e-12
-4.18353e-07
-2.57236e-27
-4.0663e-22
-5.87971e-17
-5.8786e-12
-4.18355e-07
-2.5725e-27
-4.0665e-22
-5.87995e-17
-5.87874e-12
-4.18354e-07
-2.57262e-27
-4.06665e-22
-5.88011e-17
-5.87884e-12
-4.18355e-07
-2.57271e-27
-4.06676e-22
-5.88023e-17
-5.87891e-12
-4.18355e-07
-2.57275e-27
-4.06682e-22
-5.88029e-17
-5.87895e-12
-4.18355e-07
-2.57278e-27
-4.06686e-22
-5.88033e-17
-5.87897e-12
-4.18355e-07
-2.57278e-27
-4.06686e-22
-5.88033e-17
-5.87897e-12
-4.18355e-07
-2.57275e-27
-4.06682e-22
-5.88029e-17
-5.87895e-12
-4.18355e-07
-2.57271e-27
-4.06676e-22
-5.88023e-17
-5.87891e-12
-4.18355e-07
-2.57262e-27
-4.06665e-22
-5.88011e-17
-5.87884e-12
-4.18355e-07
-2.5725e-27
-4.0665e-22
-5.87995e-17
-5.87874e-12
-4.18354e-07
-2.57236e-27
-4.0663e-22
-5.87971e-17
-5.8786e-12
-4.18355e-07
-2.57219e-27
-4.06606e-22
-5.87945e-17
-5.87843e-12
-4.18353e-07
-2.57275e-27
-4.06674e-22
-5.87997e-17
-5.87899e-12
-4.1838e-07
-2.5728e-27
-4.06681e-22
-5.88003e-17
-5.87911e-12
-4.18386e-07
-2.62919e-27
-4.14234e-22
-5.96075e-17
-5.93529e-12
-4.19056e-07
-3.47753e-27
-5.16896e-22
-6.8763e-17
-6.32363e-12
-3.9568e-07
-3.41193e-27
-5.08554e-22
-6.79507e-17
-6.27154e-12
-3.95469e-07
-3.41188e-27
-5.08547e-22
-6.79501e-17
-6.27143e-12
-3.95463e-07
-3.41124e-27
-5.08475e-22
-6.79449e-17
-6.27089e-12
-3.95436e-07
-3.41144e-27
-5.085e-22
-6.79475e-17
-6.27103e-12
-3.95436e-07
-3.4116e-27
-5.08521e-22
-6.79498e-17
-6.27116e-12
-3.95433e-07
-3.41174e-27
-5.08538e-22
-6.79514e-17
-6.27124e-12
-3.95433e-07
-3.41184e-27
-5.0855e-22
-6.79526e-17
-6.27131e-12
-3.95432e-07
-3.41189e-27
-5.08557e-22
-6.79532e-17
-6.27134e-12
-3.95432e-07
-3.41192e-27
-5.0856e-22
-6.79536e-17
-6.27136e-12
-3.95432e-07
-3.41192e-27
-5.0856e-22
-6.79536e-17
-6.27136e-12
-3.95432e-07
-3.41189e-27
-5.08557e-22
-6.79532e-17
-6.27134e-12
-3.95432e-07
-3.41184e-27
-5.0855e-22
-6.79526e-17
-6.27131e-12
-3.95432e-07
-3.41174e-27
-5.08538e-22
-6.79514e-17
-6.27124e-12
-3.95433e-07
-3.4116e-27
-5.08521e-22
-6.79498e-17
-6.27116e-12
-3.95433e-07
-3.41144e-27
-5.085e-22
-6.79475e-17
-6.27103e-12
-3.95436e-07
-3.41124e-27
-5.08475e-22
-6.79449e-17
-6.27089e-12
-3.95436e-07
-3.41188e-27
-5.08547e-22
-6.79501e-17
-6.27143e-12
-3.95463e-07
-3.41193e-27
-5.08554e-22
-6.79507e-17
-6.27154e-12
-3.95469e-07
-3.47753e-27
-5.16896e-22
-6.8763e-17
-6.32363e-12
-3.9568e-07
-1.74148e-21
-3.80081e-23
1.52714e-24
2.07359e-24
2.20362e-24
2.20607e-24
2.20689e-24
2.20692e-24
2.20697e-24
2.207e-24
2.20703e-24
2.20705e-24
2.2073e-24
2.20789e-24
2.21458e-24
2.22468e-24
2.35639e-24
2.46811e-24
5.24356e-24
6.19391e-24
-2.12353e-21
-4.24806e-23
1.51959e-24
2.07328e-24
2.2036e-24
2.20606e-24
2.20689e-24
2.20691e-24
2.20692e-24
2.20692e-24
2.20692e-24
2.20692e-24
2.20714e-24
2.20773e-24
2.21446e-24
2.2246e-24
2.35691e-24
2.46899e-24
5.25646e-24
6.20918e-24
-2.13097e-21
-4.25625e-23
1.51951e-24
2.07328e-24
2.2036e-24
2.20607e-24
2.20689e-24
2.20691e-24
2.20692e-24
2.20692e-24
2.20692e-24
2.20692e-24
2.20715e-24
2.20775e-24
2.21448e-24
2.22463e-24
2.35694e-24
2.46903e-24
5.2566e-24
6.20933e-24
-2.14881e-21
-4.27593e-23
1.51932e-24
2.07328e-24
2.2036e-24
2.20607e-24
2.20689e-24
2.20691e-24
2.20692e-24
2.20692e-24
2.20692e-24
2.20694e-24
2.20719e-24
2.20779e-24
2.21452e-24
2.22467e-24
2.35699e-24
2.46909e-24
5.2568e-24
6.20954e-24
-2.14857e-21
-4.27563e-23
1.51932e-24
2.07328e-24
2.2036e-24
2.20607e-24
2.20689e-24
2.20691e-24
2.20692e-24
2.20692e-24
2.20692e-24
2.20695e-24
2.20719e-24
2.20779e-24
2.21452e-24
2.22467e-24
2.357e-24
2.46909e-24
5.25681e-24
6.20955e-24
-2.14838e-21
-4.27543e-23
1.51932e-24
2.07328e-24
2.2036e-24
2.20607e-24
2.20689e-24
2.20691e-24
2.20692e-24
2.20692e-24
2.20692e-24
2.20695e-24
2.20719e-24
2.20779e-24
2.21453e-24
2.22467e-24
2.357e-24
2.46909e-24
5.25681e-24
6.20955e-24
-2.148e-21
-4.27501e-23
1.51933e-24
2.07328e-24
2.2036e-24
2.20607e-24
2.20689e-24
2.20691e-24
2.20692e-24
2.20692e-24
2.20692e-24
2.20695e-24
2.20719e-24
2.20779e-24
2.21453e-24
2.22467e-24
2.357e-24
2.46909e-24
5.25681e-24
6.20955e-24
-2.1477e-21
-4.27469e-23
1.51933e-24
2.07328e-24
2.2036e-24
2.20607e-24
2.20689e-24
2.20691e-24
2.20692e-24
2.20692e-24
2.20692e-24
2.20695e-24
2.20719e-24
2.20779e-24
2.21453e-24
2.22467e-24
2.357e-24
2.46909e-24
5.25681e-24
6.20955e-24
-2.14753e-21
-4.27451e-23
1.51933e-24
2.07328e-24
2.2036e-24
2.20607e-24
2.20689e-24
2.20691e-24
2.20692e-24
2.20692e-24
2.20692e-24
2.20695e-24
2.20719e-24
2.20779e-24
2.21453e-24
2.22467e-24
2.357e-24
2.46909e-24
5.25681e-24
6.20955e-24
-2.14745e-21
-4.27442e-23
1.51933e-24
2.07328e-24
2.2036e-24
2.20607e-24
2.20689e-24
2.20691e-24
2.20692e-24
2.20692e-24
2.20692e-24
2.20695e-24
2.20719e-24
2.20779e-24
2.21453e-24
2.22467e-24
2.357e-24
2.46909e-24
5.25681e-24
6.20955e-24
-2.14745e-21
-4.27442e-23
1.51933e-24
2.07328e-24
2.2036e-24
2.20607e-24
2.20689e-24
2.20691e-24
2.20692e-24
2.20692e-24
2.20692e-24
2.20695e-24
2.20719e-24
2.20779e-24
2.21453e-24
2.22467e-24
2.357e-24
2.46909e-24
5.25681e-24
6.20955e-24
-2.14753e-21
-4.27451e-23
1.51933e-24
2.07328e-24
2.2036e-24
2.20607e-24
2.20689e-24
2.20691e-24
2.20692e-24
2.20692e-24
2.20692e-24
2.20695e-24
2.20719e-24
2.20779e-24
2.21453e-24
2.22467e-24
2.357e-24
2.46909e-24
5.25681e-24
6.20955e-24
-2.1477e-21
-4.27469e-23
1.51933e-24
2.07328e-24
2.2036e-24
2.20607e-24
2.20689e-24
2.20691e-24
2.20692e-24
2.20692e-24
2.20692e-24
2.20695e-24
2.20719e-24
2.20779e-24
2.21453e-24
2.22467e-24
2.357e-24
2.46909e-24
5.25681e-24
6.20955e-24
-2.148e-21
-4.27501e-23
1.51933e-24
2.07328e-24
2.2036e-24
2.20607e-24
2.20689e-24
2.20691e-24
2.20692e-24
2.20692e-24
2.20692e-24
2.20695e-24
2.20719e-24
2.20779e-24
2.21453e-24
2.22467e-24
2.357e-24
2.46909e-24
5.25681e-24
6.20955e-24
-2.14838e-21
-4.27543e-23
1.51932e-24
2.07328e-24
2.2036e-24
2.20607e-24
2.20689e-24
2.20691e-24
2.20692e-24
2.20692e-24
2.20692e-24
2.20695e-24
2.20719e-24
2.20779e-24
2.21453e-24
2.22467e-24