/*--------------------------------*- C++ -*----------------------------------*\
  =========                 |
  \\      /  F ield         | OpenFOAM: The Open Source CFD Toolbox
   \\    /   O peration     | Website:  https://openfoam.org
    \\  /    A nd           | Version:  8
     \\/     M anipulation  |
\*---------------------------------------------------------------------------*/
FoamFile
{
    version     2.0;
    format      ascii;
    class       volScalarField;
    location    "0.3";
    object      p;
}
// * * * * * * * * * * * * * * * * * * * * * * * * * * * * * * * * * * * * * //

dimensions      [0 2 -2 0 0 0 0];

internalField   nonuniform List<scalar> 
180000
(
0.0016801
0.00163188
0.00167018
0.00143713
0.00159941
0.00167693
0.00162831
0.00166701
0.00143184
0.00159562
0.0016769
0.00162828
0.00166699
0.00143181
0.00159561
0.00167681
0.00162818
0.00166692
0.00143172
0.00159558
0.00167682
0.00162819
0.00166693
0.00143173
0.00159559
0.00167683
0.0016282
0.00166695
0.00143174
0.00159561
0.00167684
0.00162821
0.00166696
0.00143175
0.00159562
0.00167685
0.00162821
0.00166696
0.00143176
0.00159563
0.00167685
0.00162822
0.00166697
0.00143177
0.00159563
0.00167685
0.00162822
0.00166697
0.00143177
0.00159563
0.00167685
0.00162822
0.00166697
0.00143177
0.00159563
0.00167685
0.00162822
0.00166697
0.00143177
0.00159563
0.00167685
0.00162821
0.00166696
0.00143176
0.00159563
0.00167684
0.00162821
0.00166696
0.00143175
0.00159562
0.00167683
0.0016282
0.00166695
0.00143174
0.00159561
0.00167682
0.00162819
0.00166693
0.00143173
0.00159559
0.00167681
0.00162818
0.00166692
0.00143172
0.00159558
0.0016769
0.00162828
0.00166699
0.00143181
0.00159561
0.00167693
0.00162831
0.00166701
0.00143184
0.00159562
0.0016801
0.00163188
0.00167018
0.00143713
0.00159941
0.0006732
0.00068579
0.000676709
0.000788228
0.000711197
0.00067404
0.000686488
0.000677513
0.000789647
0.000713665
0.000674047
0.000686495
0.000677519
0.000789656
0.000713674
0.000674071
0.000686514
0.000677534
0.000789678
0.000713688
0.000674068
0.000686512
0.000677531
0.000789675
0.00071368
0.000674065
0.00068651
0.000677527
0.000789671
0.000713668
0.000674063
0.000686508
0.000677525
0.000789669
0.000713662
0.000674061
0.000686506
0.000677523
0.000789667
0.000713657
0.00067406
0.000686505
0.000677522
0.000789665
0.000713654
0.000674059
0.000686505
0.000677521
0.000789665
0.000713653
0.000674059
0.000686505
0.000677521
0.000789665
0.000713653
0.00067406
0.000686505
0.000677522
0.000789665
0.000713654
0.000674061
0.000686506
0.000677523
0.000789667
0.000713657
0.000674063
0.000686508
0.000677525
0.000789669
0.000713662
0.000674065
0.00068651
0.000677527
0.000789671
0.000713668
0.000674068
0.000686512
0.000677531
0.000789675
0.00071368
0.000674071
0.000686514
0.000677534
0.000789678
0.000713688
0.000674047
0.000686495
0.000677519
0.000789656
0.000713674
0.00067404
0.000686488
0.000677513
0.000789647
0.000713665
0.0006732
0.00068579
0.000676709
0.000788228
0.000711197
0.000695277
0.000674143
0.000691765
0.000630195
0.000671552
0.000693814
0.000672666
0.000690341
0.00062936
0.000670409
0.000693806
0.000672657
0.000690334
0.000629356
0.000670406
0.000693762
0.000672612
0.000690303
0.000629338
0.000670398
0.000693766
0.000672615
0.000690307
0.00062934
0.000670401
0.00069377
0.000672619
0.000690313
0.000629342
0.000670407
0.000693774
0.000672622
0.000690317
0.000629343
0.000670409
0.000693777
0.000672625
0.00069032
0.000629345
0.000670412
0.000693779
0.000672627
0.000690322
0.000629346
0.000670413
0.00069378
0.000672628
0.000690323
0.000629346
0.000670414
0.00069378
0.000672628
0.000690323
0.000629346
0.000670414
0.000693779
0.000672627
0.000690322
0.000629346
0.000670413
0.000693777
0.000672625
0.00069032
0.000629345
0.000670412
0.000693774
0.000672622
0.000690317
0.000629343
0.000670409
0.00069377
0.000672619
0.000690313
0.000629342
0.000670407
0.000693766
0.000672615
0.000690307
0.00062934
0.000670401
0.000693762
0.000672612
0.000690303
0.000629338
0.000670398
0.000693806
0.000672657
0.000690334
0.000629356
0.000670406
0.000693814
0.000672666
0.000690341
0.00062936
0.000670409
0.000695277
0.000674143
0.000691765
0.000630195
0.000671552
0.000753953
0.000737685
0.000751976
0.00068366
0.000737481
0.000752895
0.00073652
0.000750937
0.000682063
0.000736519
0.000752889
0.000736512
0.000750932
0.000682054
0.000736516
0.000752854
0.000736473
0.000750906
0.00068202
0.000736508
0.000752856
0.000736476
0.000750909
0.000682023
0.000736511
0.00075286
0.000736479
0.000750914
0.000682028
0.000736516
0.000752863
0.000736482
0.000750916
0.000682031
0.000736518
0.000752865
0.000736484
0.000750919
0.000682034
0.000736521
0.000752867
0.000736486
0.000750921
0.000682035
0.000736522
0.000752868
0.000736487
0.000750921
0.000682036
0.000736523
0.000752868
0.000736487
0.000750921
0.000682036
0.000736523
0.000752867
0.000736486
0.000750921
0.000682035
0.000736522
0.000752865
0.000736484
0.000750919
0.000682034
0.000736521
0.000752863
0.000736482
0.000750916
0.000682031
0.000736518
0.00075286
0.000736479
0.000750914
0.000682028
0.000736516
0.000752856
0.000736476
0.000750909
0.000682023
0.000736511
0.000752854
0.000736473
0.000750906
0.00068202
0.000736508
0.000752889
0.000736512
0.000750932
0.000682054
0.000736516
0.000752895
0.00073652
0.000750937
0.000682063
0.000736519
0.000753953
0.000737685
0.000751976
0.00068366
0.000737481
0.000760161
0.000748776
0.000759626
0.000711288
0.000754002
0.000759468
0.000747962
0.000758943
0.000709955
0.000753508
0.000759464
0.000747956
0.00075894
0.000709947
0.000753507
0.000759437
0.000747925
0.00075892
0.000709916
0.0007535
0.000759439
0.000747927
0.000758921
0.000709919
0.000753502
0.000759441
0.000747929
0.000758925
0.000709922
0.000753505
0.000759443
0.000747931
0.000758927
0.000709925
0.000753506
0.000759445
0.000747934
0.000758929
0.000709928
0.000753508
0.000759446
0.000747935
0.00075893
0.000709929
0.000753509
0.000759447
0.000747935
0.000758931
0.00070993
0.000753509
0.000759447
0.000747935
0.000758931
0.00070993
0.000753509
0.000759446
0.000747935
0.00075893
0.000709929
0.000753509
0.000759445
0.000747934
0.000758929
0.000709928
0.000753508
0.000759443
0.000747931
0.000758927
0.000709925
0.000753506
0.000759441
0.000747929
0.000758925
0.000709922
0.000753505
0.000759439
0.000747927
0.000758921
0.000709919
0.000753502
0.000759437
0.000747925
0.00075892
0.000709916
0.0007535
0.000759464
0.000747956
0.00075894
0.000709947
0.000753507
0.000759468
0.000747962
0.000758943
0.000709955
0.000753508
0.000760161
0.000748776
0.000759626
0.000711288
0.000754002
0.000751862
0.000740527
0.000751667
0.000708764
0.000749184
0.000751187
0.000739751
0.000751009
0.000707676
0.000748786
0.000751183
0.000739746
0.000751006
0.00070767
0.000748784
0.000751155
0.000739714
0.000750985
0.000707641
0.000748778
0.000751157
0.000739716
0.000750987
0.000707643
0.000748779
0.000751159
0.000739718
0.00075099
0.000707646
0.000748782
0.000751161
0.00073972
0.000750992
0.000707648
0.000748784
0.000751164
0.000739722
0.000750994
0.000707651
0.000748785
0.000751165
0.000739723
0.000750996
0.000707652
0.000748786
0.000751165
0.000739724
0.000750996
0.000707653
0.000748786
0.000751165
0.000739724
0.000750996
0.000707653
0.000748786
0.000751165
0.000739723
0.000750996
0.000707652
0.000748786
0.000751164
0.000739722
0.000750994
0.000707651
0.000748785
0.000751161
0.00073972
0.000750992
0.000707648
0.000748784
0.000751159
0.000739718
0.00075099
0.000707646
0.000748782
0.000751157
0.000739716
0.000750987
0.000707643
0.000748779
0.000751155
0.000739714
0.000750985
0.000707641
0.000748778
0.000751183
0.000739746
0.000751006
0.00070767
0.000748784
0.000751187
0.000739751
0.000751009
0.000707676
0.000748786
0.000751862
0.000740527
0.000751667
0.000708764
0.000749184
0.000747014
0.000734837
0.000746973
0.000701928
0.00074634
0.000746304
0.000734032
0.000746285
0.000700888
0.000745921
0.0007463
0.000734026
0.000746281
0.000700881
0.000745919
0.00074627
0.000733992
0.000746259
0.000700852
0.000745912
0.000746272
0.000733994
0.000746261
0.000700854
0.000745914
0.000746274
0.000733997
0.000746264
0.000700857
0.000745917
0.000746277
0.000733999
0.000746267
0.00070086
0.000745919
0.000746279
0.000734001
0.000746269
0.000700862
0.000745921
0.00074628
0.000734002
0.00074627
0.000700863
0.000745921
0.000746281
0.000734003
0.000746271
0.000700864
0.000745922
0.000746281
0.000734003
0.000746271
0.000700864
0.000745922
0.00074628
0.000734002
0.00074627
0.000700863
0.000745921
0.000746279
0.000734001
0.000746269
0.000700862
0.000745921
0.000746277
0.000733999
0.000746267
0.00070086
0.000745919
0.000746274
0.000733997
0.000746264
0.000700857
0.000745917
0.000746272
0.000733994
0.000746261
0.000700854
0.000745914
0.00074627
0.000733992
0.000746259
0.000700852
0.000745912
0.0007463
0.000734026
0.000746281
0.000700881
0.000745919
0.000746304
0.000734032
0.000746285
0.000700888
0.000745921
0.000747014
0.000734837
0.000746973
0.000701928
0.00074634
0.000745128
0.000732596
0.00074535
0.000698631
0.000747038
0.000744419
0.000731792
0.000744666
0.000697594
0.000746623
0.000744414
0.000731786
0.000744662
0.000697587
0.000746621
0.000744383
0.00073175
0.000744639
0.000697556
0.000746613
0.000744385
0.000731752
0.000744641
0.000697558
0.000746615
0.000744388
0.000731755
0.000744645
0.000697562
0.000746619
0.00074439
0.000731757
0.000744647
0.000697564
0.000746621
0.000744392
0.00073176
0.00074465
0.000697567
0.000746623
0.000744394
0.000731761
0.000744651
0.000697568
0.000746624
0.000744395
0.000731762
0.000744652
0.000697569
0.000746624
0.000744395
0.000731762
0.000744652
0.000697569
0.000746624
0.000744394
0.000731761
0.000744651
0.000697568
0.000746624
0.000744392
0.00073176
0.00074465
0.000697567
0.000746623
0.00074439
0.000731757
0.000744647
0.000697564
0.000746621
0.000744388
0.000731755
0.000744645
0.000697562
0.000746619
0.000744385
0.000731752
0.000744641
0.000697558
0.000746615
0.000744383
0.00073175
0.000744639
0.000697556
0.000746613
0.000744414
0.000731786
0.000744662
0.000697587
0.000746621
0.000744419
0.000731792
0.000744666
0.000697594
0.000746623
0.000745128
0.000732596
0.00074535
0.000698631
0.000747038
0.000743548
0.00073096
0.000744095
0.000697251
0.000748394
0.00074286
0.000730178
0.000743435
0.000696237
0.000748006
0.000742855
0.000730172
0.000743431
0.000696231
0.000748004
0.000742823
0.000730136
0.000743407
0.000696199
0.000747996
0.000742825
0.000730138
0.000743409
0.000696201
0.000747997
0.000742828
0.00073014
0.000743413
0.000696205
0.000748002
0.00074283
0.000730143
0.000743415
0.000696208
0.000748003
0.000742833
0.000730146
0.000743418
0.00069621
0.000748005
0.000742834
0.000730147
0.000743419
0.000696212
0.000748006
0.000742835
0.000730148
0.00074342
0.000696213
0.000748007
0.000742835
0.000730148
0.00074342
0.000696213
0.000748007
0.000742834
0.000730147
0.000743419
0.000696212
0.000748006
0.000742833
0.000730146
0.000743418
0.00069621
0.000748005
0.00074283
0.000730143
0.000743415
0.000696208
0.000748003
0.000742828
0.00073014
0.000743413
0.000696205
0.000748002
0.000742825
0.000730138
0.000743409
0.000696201
0.000747997
0.000742823
0.000730136
0.000743407
0.000696199
0.000747996
0.000742855
0.000730172
0.000743431
0.000696231
0.000748004
0.00074286
0.000730178
0.000743435
0.000696237
0.000748006
0.000743548
0.00073096
0.000744095
0.000697251
0.000748394
0.000741613
0.000728977
0.00074248
0.000696012
0.0007495
0.000740945
0.000728217
0.000741842
0.000695034
0.000749137
0.00074094
0.000728211
0.000741838
0.000695028
0.000749135
0.000740907
0.000728174
0.000741813
0.000694996
0.000749126
0.000740909
0.000728176
0.000741815
0.000694998
0.000749128
0.000740912
0.000728179
0.00074182
0.000695002
0.000749132
0.000740914
0.000728181
0.000741822
0.000695004
0.000749134
0.000740917
0.000728184
0.000741825
0.000695007
0.000749136
0.000740918
0.000728185
0.000741826
0.000695009
0.000749137
0.000740919
0.000728186
0.000741827
0.00069501
0.000749138
0.000740919
0.000728186
0.000741827
0.00069501
0.000749138
0.000740918
0.000728185
0.000741826
0.000695009
0.000749137
0.000740917
0.000728184
0.000741825
0.000695007
0.000749136
0.000740914
0.000728181
0.000741822
0.000695004
0.000749134
0.000740912
0.000728179
0.00074182
0.000695002
0.000749132
0.000740909
0.000728176
0.000741815
0.000694998
0.000749128
0.000740907
0.000728174
0.000741813
0.000694996
0.000749126
0.00074094
0.000728211
0.000741838
0.000695028
0.000749135
0.000740945
0.000728217
0.000741842
0.000695034
0.000749137
0.000741613
0.000728977
0.00074248
0.000696012
0.0007495
0.000739537
0.000726808
0.000740705
0.000694585
0.000750773
0.000738884
0.000726066
0.000740085
0.000693644
0.000750421
0.000738879
0.000726061
0.000740081
0.000693638
0.000750419
0.000738846
0.000726023
0.000740056
0.000693605
0.00075041
0.000738848
0.000726024
0.000740058
0.000693608
0.000750412
0.000738851
0.000726027
0.000740063
0.000693612
0.000750416
0.000738853
0.00072603
0.000740065
0.000693614
0.000750418
0.000738856
0.000726033
0.000740068
0.000693617
0.000750421
0.000738857
0.000726034
0.00074007
0.000693619
0.000750422
0.000738858
0.000726035
0.00074007
0.00069362
0.000750422
0.000738858
0.000726035
0.00074007
0.00069362
0.000750422
0.000738857
0.000726034
0.00074007
0.000693619
0.000750422
0.000738856
0.000726033
0.000740068
0.000693617
0.000750421
0.000738853
0.00072603
0.000740065
0.000693614
0.000750418
0.000738851
0.000726027
0.000740063
0.000693612
0.000750416
0.000738848
0.000726024
0.000740058
0.000693608
0.000750412
0.000738846
0.000726023
0.000740056
0.000693605
0.00075041
0.000738879
0.000726061
0.000740081
0.000693638
0.000750419
0.000738884
0.000726066
0.000740085
0.000693644
0.000750421
0.000739537
0.000726808
0.000740705
0.000694585
0.000750773
0.000737482
0.000724648
0.000738939
0.00069306
0.000748147
0.000736844
0.000723924
0.000738337
0.000692155
0.00074779
0.000736839
0.000723918
0.000738333
0.000692149
0.000747788
0.000736805
0.000723879
0.000738307
0.000692116
0.000747778
0.000736807
0.000723881
0.000738309
0.000692118
0.00074778
0.00073681
0.000723884
0.000738314
0.000692122
0.000747785
0.000736812
0.000723886
0.000738317
0.000692125
0.000747787
0.000736815
0.000723889
0.00073832
0.000692128
0.00074779
0.000736817
0.000723891
0.000738321
0.000692129
0.000747791
0.000736818
0.000723892
0.000738322
0.00069213
0.000747792
0.000736818
0.000723892
0.000738322
0.00069213
0.000747792
0.000736817
0.000723891
0.000738321
0.000692129
0.000747791
0.000736815
0.000723889
0.00073832
0.000692128
0.00074779
0.000736812
0.000723886
0.000738317
0.000692125
0.000747787
0.00073681
0.000723884
0.000738314
0.000692122
0.000747785
0.000736807
0.000723881
0.000738309
0.000692118
0.00074778
0.000736805
0.000723879
0.000738307
0.000692116
0.000747778
0.000736839
0.000723918
0.000738333
0.000692149
0.000747788
0.000736844
0.000723924
0.000738337
0.000692155
0.00074779
0.000737482
0.000724648
0.000738939
0.00069306
0.000748147
0.000735461
0.000722528
0.0007372
0.000691427
0.000744353
0.000734838
0.000721821
0.000736615
0.000690555
0.000743986
0.000734833
0.000721815
0.000736611
0.000690549
0.000743983
0.000734799
0.000721776
0.000736585
0.000690516
0.000743974
0.0007348
0.000721778
0.000736587
0.000690518
0.000743976
0.000734804
0.000721781
0.000736592
0.000690522
0.000743981
0.000734806
0.000721784
0.000736595
0.000690525
0.000743983
0.00073481
0.000721787
0.000736598
0.000690528
0.000743986
0.000734811
0.000721788
0.000736599
0.00069053
0.000743987
0.000734812
0.000721789
0.0007366
0.000690531
0.000743988
0.000734812
0.000721789
0.0007366
0.000690531
0.000743988
0.000734811
0.000721788
0.000736599
0.00069053
0.000743987
0.00073481
0.000721787
0.000736598
0.000690528
0.000743986
0.000734806
0.000721784
0.000736595
0.000690525
0.000743983
0.000734804
0.000721781
0.000736592
0.000690522
0.000743981
0.0007348
0.000721778
0.000736587
0.000690518
0.000743976
0.000734799
0.000721776
0.000736585
0.000690516
0.000743974
0.000734833
0.000721815
0.000736611
0.000690549
0.000743983
0.000734838
0.000721821
0.000736615
0.000690555
0.000743986
0.000735461
0.000722528
0.0007372
0.000691427
0.000744353
0.000733454
0.000720428
0.000735467
0.000689671
0.000740788
0.000732846
0.000719738
0.000734899
0.000688833
0.000740412
0.000732841
0.000719732
0.000734895
0.000688827
0.000740409
0.000732806
0.000719693
0.000734869
0.000688794
0.0007404
0.000732808
0.000719694
0.000734871
0.000688796
0.000740402
0.000732811
0.000719697
0.000734876
0.0006888
0.000740408
0.000732814
0.0007197
0.000734879
0.000688803
0.00074041
0.000732817
0.000719703
0.000734882
0.000688806
0.000740413
0.000732819
0.000719705
0.000734884
0.000688808
0.000740414
0.00073282
0.000719706
0.000734885
0.000688809
0.000740415
0.00073282
0.000719706
0.000734885
0.000688809
0.000740415
0.000732819
0.000719705
0.000734884
0.000688808
0.000740414
0.000732817
0.000719703
0.000734882
0.000688806
0.000740413
0.000732814
0.0007197
0.000734879
0.000688803
0.00074041
0.000732811
0.000719697
0.000734876
0.0006888
0.000740408
0.000732808
0.000719694
0.000734871
0.000688796
0.000740402
0.000732806
0.000719693
0.000734869
0.000688794
0.0007404
0.000732841
0.000719732
0.000734895
0.000688827
0.000740409
0.000732846
0.000719738
0.000734899
0.000688833
0.000740412
0.000733454
0.000720428
0.000735467
0.000689671
0.000740788
0.000731452
0.000718334
0.000733733
0.000687796
0.000737445
0.000730858
0.000717661
0.000733181
0.000686991
0.000737063
0.000730853
0.000717656
0.000733177
0.000686985
0.00073706
0.000730818
0.000717616
0.000733151
0.000686951
0.000737051
0.00073082
0.000717617
0.000733153
0.000686954
0.000737053
0.000730824
0.000717621
0.000733158
0.000686958
0.000737059
0.000730826
0.000717623
0.000733161
0.000686961
0.000737061
0.00073083
0.000717627
0.000733165
0.000686964
0.000737064
0.000730831
0.000717628
0.000733166
0.000686966
0.000737066
0.000730832
0.000717629
0.000733167
0.000686967
0.000737067
0.000730832
0.000717629
0.000733167
0.000686967
0.000737067
0.000730831
0.000717628
0.000733166
0.000686966
0.000737066
0.00073083
0.000717627
0.000733165
0.000686964
0.000737064
0.000730826
0.000717623
0.000733161
0.000686961
0.000737061
0.000730824
0.000717621
0.000733158
0.000686958
0.000737059
0.00073082
0.000717617
0.000733153
0.000686954
0.000737053
0.000730818
0.000717616
0.000733151
0.000686951
0.000737051
0.000730853
0.000717656
0.000733177
0.000686985
0.00073706
0.000730858
0.000717661
0.000733181
0.000686991
0.000737063
0.000731452
0.000718334
0.000733733
0.000687796
0.000737445
0.000729456
0.000716247
0.000731998
0.000685808
0.000734107
0.000728877
0.000715592
0.000731463
0.000685035
0.00073372
0.000728871
0.000715586
0.000731459
0.000685029
0.000733717
0.000728836
0.000715545
0.000731433
0.000684996
0.000733708
0.000728837
0.000715547
0.000731435
0.000684998
0.00073371
0.000728841
0.000715551
0.00073144
0.000685003
0.000733716
0.000728844
0.000715553
0.000731443
0.000685006
0.000733719
0.000728848
0.000715557
0.000731447
0.000685009
0.000733722
0.000728849
0.000715558
0.000731448
0.000685011
0.000733724
0.00072885
0.000715559
0.000731449
0.000685012
0.000733725
0.00072885
0.000715559
0.000731449
0.000685012
0.000733725
0.000728849
0.000715558
0.000731448
0.000685011
0.000733724
0.000728848
0.000715557
0.000731447
0.000685009
0.000733722
0.000728844
0.000715553
0.000731443
0.000685006
0.000733719
0.000728841
0.000715551
0.00073144
0.000685003
0.000733716
0.000728837
0.000715547
0.000731435
0.000684998
0.00073371
0.000728836
0.000715545
0.000731433
0.000684996
0.000733708
0.000728871
0.000715586
0.000731459
0.000685029
0.000733717
0.000728877
0.000715592
0.000731463
0.000685035
0.00073372
0.000729456
0.000716247
0.000731998
0.000685808
0.000734107
0.000727467
0.000714169
0.000730266
0.000683714
0.000730714
0.000726902
0.00071353
0.000729747
0.000682973
0.000730321
0.000726896
0.000713524
0.000729743
0.000682967
0.000730318
0.000726861
0.000713483
0.000729717
0.000682934
0.00073031
0.000726862
0.000713485
0.000729719
0.000682936
0.000730312
0.000726866
0.000713488
0.000729724
0.000682941
0.000730318
0.000726869
0.000713491
0.000729727
0.000682943
0.000730321
0.000726873
0.000713495
0.000729731
0.000682947
0.000730324
0.000726874
0.000713496
0.000729732
0.000682949
0.000730326
0.000726876
0.000713498
0.000729733
0.00068295
0.000730327
0.000726876
0.000713498
0.000729733
0.00068295
0.000730327
0.000726874
0.000713496
0.000729732
0.000682949
0.000730326
0.000726873
0.000713495
0.000729731
0.000682947
0.000730324
0.000726869
0.000713491
0.000729727
0.000682943
0.000730321
0.000726866
0.000713488
0.000729724
0.000682941
0.000730318
0.000726862
0.000713485
0.000729719
0.000682936
0.000730312
0.000726861
0.000713483
0.000729717
0.000682934
0.00073031
0.000726896
0.000713524
0.000729743
0.000682967
0.000730318
0.000726902
0.00071353
0.000729747
0.000682973
0.000730321
0.000727467
0.000714169
0.000730266
0.000683714
0.000730714
0.000725486
0.000712099
0.000728537
0.000681519
0.000727296
0.000724934
0.000711476
0.000728034
0.000680807
0.000726896
0.000724929
0.00071147
0.000728029
0.000680802
0.000726893
0.000724893
0.000711429
0.000728004
0.000680769
0.000726885
0.000724894
0.000711431
0.000728006
0.000680771
0.000726887
0.000724899
0.000711435
0.000728011
0.000680776
0.000726894
0.000724901
0.000711438
0.000728014
0.000680779
0.000726897
0.000724905
0.000711441
0.000728018
0.000680783
0.0007269
0.000724907
0.000711443
0.00072802
0.000680784
0.000726902
0.000724908
0.000711444
0.000728021
0.000680785
0.000726903
0.000724908
0.000711444
0.000728021
0.000680785
0.000726903
0.000724907
0.000711443
0.00072802
0.000680784
0.000726902
0.000724905
0.000711441
0.000728018
0.000680783
0.0007269
0.000724901
0.000711438
0.000728014
0.000680779
0.000726897
0.000724899
0.000711435
0.000728011
0.000680776
0.000726894
0.000724894
0.000711431
0.000728006
0.000680771
0.000726887
0.000724893
0.000711429
0.000728004
0.000680769
0.000726885
0.000724929
0.00071147
0.000728029
0.000680802
0.000726893
0.000724934
0.000711476
0.000728034
0.000680807
0.000726896
0.000725486
0.000712099
0.000728537
0.000681519
0.000727296
0.000723511
0.000710038
0.000726812
0.000679226
0.000723879
0.000722973
0.00070943
0.000726324
0.000678543
0.000723473
0.000722968
0.000709425
0.00072632
0.000678538
0.00072347
0.000722932
0.000709384
0.000726295
0.000678505
0.000723462
0.000722934
0.000709385
0.000726297
0.000678507
0.000723465
0.000722938
0.000709389
0.000726302
0.000678512
0.000723472
0.000722941
0.000709392
0.000726305
0.000678515
0.000723474
0.000722945
0.000709396
0.000726309
0.000678519
0.000723478
0.000722946
0.000709398
0.000726311
0.000678521
0.00072348
0.000722948
0.000709399
0.000726312
0.000678522
0.000723481
0.000722948
0.000709399
0.000726312
0.000678522
0.000723481
0.000722946
0.000709398
0.000726311
0.000678521
0.00072348
0.000722945
0.000709396
0.000726309
0.000678519
0.000723478
0.000722941
0.000709392
0.000726305
0.000678515
0.000723474
0.000722938
0.000709389
0.000726302
0.000678512
0.000723472
0.000722934
0.000709385
0.000726297
0.000678507
0.000723465
0.000722932
0.000709384
0.000726295
0.000678505
0.000723462
0.000722968
0.000709425
0.00072632
0.000678538
0.00072347
0.000722973
0.00070943
0.000726324
0.000678543
0.000723473
0.000723511
0.000710038
0.000726812
0.000679226
0.000723879
0.000721544
0.000707984
0.000725093
0.000676839
0.000720234
0.000721019
0.000707393
0.00072462
0.000676185
0.000719819
0.000721014
0.000707387
0.000724616
0.00067618
0.000719816
0.000720978
0.000707346
0.00072459
0.000676147
0.000719809
0.000720979
0.000707348
0.000724592
0.000676149
0.000719811
0.000720984
0.000707352
0.000724598
0.000676155
0.000719819
0.000720987
0.000707355
0.000724601
0.000676158
0.000719822
0.000720991
0.000707359
0.000724605
0.000676162
0.000719826
0.000720993
0.000707361
0.000724607
0.000676163
0.000719827
0.000720994
0.000707362
0.000724608
0.000676164
0.000719829
0.000720994
0.000707362
0.000724608
0.000676164
0.000719829
0.000720993
0.000707361
0.000724607
0.000676163
0.000719827
0.000720991
0.000707359
0.000724605
0.000676162
0.000719826
0.000720987
0.000707355
0.000724601
0.000676158
0.000719822
0.000720984
0.000707352
0.000724598
0.000676155
0.000719819
0.000720979
0.000707348
0.000724592
0.000676149
0.000719811
0.000720978
0.000707346
0.00072459
0.000676147
0.000719809
0.000721014
0.000707387
0.000724616
0.00067618
0.000719816
0.000721019
0.000707393
0.00072462
0.000676185
0.000719819
0.000721544
0.000707984
0.000725093
0.000676839
0.000720234
-7.27796e-06
1.98551e-05
2.47262e-06
5.3352e-07
1.95842e-07
1.68035e-07
1.62182e-07
1.61734e-07
1.61622e-07
1.61613e-07
1.61611e-07
1.61609e-07
1.61588e-07
1.61551e-07
1.61155e-07
1.60739e-07
1.56015e-07
1.53471e-07
1.16241e-07
1.1087e-07
-7.45106e-06
1.99444e-05
2.49953e-06
5.36721e-07
1.96225e-07
1.68075e-07
1.62166e-07
1.61713e-07
1.616e-07
1.61591e-07
1.61588e-07
1.61587e-07
1.61565e-07
1.61528e-07
1.61129e-07
1.60709e-07
1.55954e-07
1.53399e-07
1.1604e-07
1.10679e-07
-7.45285e-06
1.99455e-05
2.49987e-06
5.36775e-07
1.96233e-07
1.68076e-07
1.62166e-07
1.61712e-07
1.61599e-07
1.61591e-07
1.61588e-07
1.61587e-07
1.61565e-07
1.61527e-07
1.61128e-07
1.60709e-07
1.55953e-07
1.53398e-07
1.16038e-07
1.10677e-07
-7.45775e-06
1.9948e-05
2.50052e-06
5.36892e-07
1.96247e-07
1.68078e-07
1.62166e-07
1.61711e-07
1.61598e-07
1.6159e-07
1.61587e-07
1.61586e-07
1.61564e-07
1.61526e-07
1.61127e-07
1.60708e-07
1.55951e-07
1.53395e-07
1.16033e-07
1.10672e-07
-7.45755e-06
1.99481e-05
2.50055e-06
5.36897e-07
1.96247e-07
1.68078e-07
1.62166e-07
1.61711e-07
1.61598e-07
1.6159e-07
1.61587e-07
1.61585e-07
1.61564e-07
1.61526e-07
1.61127e-07
1.60708e-07
1.55951e-07
1.53395e-07
1.16033e-07
1.10672e-07
-7.45723e-06
1.99482e-05
2.50057e-06
5.36901e-07
1.96248e-07
1.68078e-07
1.62166e-07
1.61711e-07
1.61598e-07
1.6159e-07
1.61587e-07
1.61585e-07
1.61564e-07
1.61526e-07
1.61127e-07
1.60707e-07
1.55951e-07
1.53395e-07
1.16033e-07
1.10672e-07
-7.45701e-06
1.99482e-05
2.50058e-06
5.36901e-07
1.96248e-07
1.68078e-07
1.62166e-07
1.61711e-07
1.61598e-07
1.6159e-07
1.61587e-07
1.61585e-07
1.61564e-07
1.61526e-07
1.61127e-07
1.60707e-07
1.55951e-07
1.53395e-07
1.16033e-07
1.10672e-07
-7.4568e-06
1.99482e-05
2.50058e-06
5.36902e-07
1.96248e-07
1.68078e-07
1.62166e-07
1.61711e-07
1.61598e-07
1.6159e-07
1.61587e-07
1.61585e-07
1.61564e-07
1.61526e-07
1.61127e-07
1.60707e-07
1.55951e-07
1.53395e-07
1.16033e-07
1.10672e-07
-7.45669e-06
1.99482e-05
2.50059e-06
5.36902e-07
1.96248e-07
1.68078e-07
1.62166e-07
1.61711e-07
1.61598e-07
1.6159e-07
1.61587e-07
1.61585e-07
1.61564e-07
1.61526e-07
1.61127e-07
1.60707e-07
1.55951e-07
1.53395e-07
1.16033e-07
1.10672e-07
-7.45663e-06
1.99483e-05
2.50059e-06
5.36902e-07
1.96248e-07
1.68078e-07
1.62166e-07
1.61711e-07
1.61598e-07
1.6159e-07
1.61587e-07
1.61585e-07
1.61564e-07
1.61526e-07
1.61127e-07
1.60707e-07
1.55951e-07
1.53395e-07
1.16033e-07
1.10672e-07
-7.45663e-06
1.99483e-05
2.50059e-06
5.36902e-07
1.96248e-07
1.68078e-07
1.62166e-07
1.61711e-07
1.61598e-07
1.6159e-07
1.61587e-07
1.61585e-07
1.61564e-07
1.61526e-07
1.61127e-07
1.60707e-07
1.55951e-07
1.53395e-07
1.16033e-07
1.10672e-07
-7.45669e-06
1.99482e-05
2.50059e-06
5.36902e-07
1.96248e-07
1.68078e-07
1.62166e-07
1.61711e-07
1.61598e-07
1.6159e-07
1.61587e-07
1.61585e-07
1.61564e-07
1.61526e-07
1.61127e-07
1.60707e-07
1.55951e-07
1.53395e-07
1.16033e-07
1.10672e-07
-7.4568e-06
1.99482e-05
2.50058e-06
5.36902e-07
1.96248e-07
1.68078e-07
1.62166e-07
1.61711e-07
1.61598e-07
1.6159e-07
1.61587e-07
1.61585e-07
1.61564e-07
1.61526e-07
1.61127e-07
1.60707e-07
1.55951e-07
1.53395e-07
1.16033e-07
1.10672e-07
-7.45701e-06
1.99482e-05
2.50058e-06
5.36901e-07
1.96248e-07
1.68078e-07
1.62166e-07
1.61711e-07
1.61598e-07
1.6159e-07
1.61587e-07
1.61585e-07
1.61564e-07
1.61526e-07
1.61127e-07
1.60707e-07
1.55951e-07
1.53395e-07
1.16033e-07
1.10672e-07
-7.45723e-06
1.99482e-05
2.50057e-06
5.36901e-07
1.96248e-07
1.68078e-07
1.62166e-07
1.61711e-07
1.61598e-07
1.6159e-07
1.61587e-07
1.61585e-07
1.61564e-07
1.61526e-07
1.61127e-07
1.60707e-07
1.55951e-07
1.53395e-07
1.16033e-07
1.10672e-07
-7.45755e-06
1.99481e-05
2.50055e-06
5.36897e-07
1.96247e-07
1.68078e-07
1.62166e-07
1.61711e-07
1.61598e-07
1.6159e-07
1.61587e-07
1.61585e-07
1.61564e-07
1.61526e-07
1.61127e-07
1.60708e-07
1.55951e-07
1.53395e-07
1.16033e-07
1.10672e-07
-7.45775e-06
1.9948e-05
2.50052e-06
5.36892e-07
1.96247e-07
1.68078e-07
1.62166e-07
1.61711e-07
1.61598e-07
1.6159e-07
1.61587e-07
1.61586e-07
1.61564e-07
1.61526e-07
1.61127e-07
1.60708e-07
1.55951e-07
1.53395e-07
1.16033e-07
1.10672e-07
-7.45285e-06
1.99455e-05
2.49987e-06
5.36775e-07
1.96233e-07
1.68076e-07
1.62166e-07
1.61712e-07
1.61599e-07
1.61591e-07
1.61588e-07
1.61587e-07
1.61565e-07
1.61527e-07
1.61128e-07
1.60709e-07
1.55953e-07
1.53398e-07
1.16038e-07
1.10677e-07
-7.45106e-06
1.99444e-05
2.49953e-06
5.36721e-07
1.96225e-07
1.68075e-07
1.62166e-07
1.61713e-07
1.616e-07
1.61591e-07
1.61588e-07
1.61587e-07
1.61565e-07
1.61528e-07
1.61129e-07
1.60709e-07
1.55954e-07
1.53399e-07
1.1604e-07
1.10679e-07
-7.27796e-06
1.98551e-05
2.47262e-06
5.3352e-07
1.95842e-07
1.68035e-07
1.62182e-07
1.61734e-07
1.61622e-07
1.61613e-07
1.61611e-07
1.61609e-07
1.61588e-07
1.61551e-07
1.61155e-07
1.60739e-07
1.56015e-07
1.53471e-07
1.16241e-07
1.1087e-07
-7.50694e-06
2.00452e-05
2.49187e-06
5.3706e-07
1.96153e-07
1.68096e-07
1.62277e-07
1.61823e-07
1.6171e-07
1.61701e-07
1.61699e-07
1.61697e-07
1.61676e-07
1.61638e-07
1.61236e-07
1.608e-07
1.55952e-07
1.53397e-07
1.15707e-07
1.10306e-07
-7.67457e-06
2.01359e-05
2.51901e-06
5.40294e-07
1.9654e-07
1.68138e-07
1.62262e-07
1.61802e-07
1.61688e-07
1.61679e-07
1.61677e-07
1.61675e-07
1.61653e-07
1.61615e-07
1.6121e-07
1.60771e-07
1.5589e-07
1.53324e-07
1.15503e-07
1.10112e-07
-7.67631e-06
2.0137e-05
2.51935e-06
5.40347e-07
1.96548e-07
1.68139e-07
1.62262e-07
1.61802e-07
1.61688e-07
1.61679e-07
1.61676e-07
1.61675e-07
1.61653e-07
1.61615e-07
1.6121e-07
1.60771e-07
1.5589e-07
1.53323e-07
1.15502e-07
1.1011e-07
-7.68112e-06
2.01395e-05
2.52001e-06
5.40466e-07
1.96562e-07
1.68141e-07
1.62261e-07
1.61801e-07
1.61687e-07