/*--------------------------------*- C++ -*----------------------------------*\
  =========                 |
  \\      /  F ield         | OpenFOAM: The Open Source CFD Toolbox
   \\    /   O peration     | Website:  https://openfoam.org
    \\  /    A nd           | Version:  8
     \\/     M anipulation  |
\*---------------------------------------------------------------------------*/
FoamFile
{
    version     2.0;
    format      ascii;
    class       volScalarField;
    location    "2.1";
    object      p;
}
// * * * * * * * * * * * * * * * * * * * * * * * * * * * * * * * * * * * * * //

dimensions      [0 2 -2 0 0 0 0];

internalField   nonuniform List<scalar> 
180000
(
0.00093777
0.000874559
0.000915659
0.000778012
0.000851799
0.000923216
0.000860255
0.00090106
0.000764792
0.000837364
0.000922563
0.000859632
0.000900406
0.000764248
0.000836745
0.000918603
0.000855826
0.00089643
0.000760901
0.00083301
0.000918239
0.00085548
0.000896063
0.000760599
0.000832664
0.000916644
0.000853957
0.000894456
0.000759264
0.000831156
0.000916472
0.000853794
0.000894282
0.000759121
0.000830991
0.000915829
0.000853181
0.000893633
0.000758582
0.000830381
0.000915764
0.000853119
0.000893566
0.000758527
0.000830317
0.000915591
0.000852954
0.000893392
0.000758383
0.000830153
0.000915591
0.000852954
0.000893392
0.000758383
0.000830153
0.000915764
0.000853119
0.000893566
0.000758527
0.000830317
0.000915829
0.000853181
0.000893633
0.000758582
0.000830381
0.000916472
0.000853794
0.000894282
0.000759121
0.000830991
0.000916644
0.000853957
0.000894456
0.000759264
0.000831156
0.000918239
0.00085548
0.000896063
0.000760599
0.000832664
0.000918603
0.000855826
0.00089643
0.000760901
0.00083301
0.000922563
0.000859632
0.000900406
0.000764248
0.000836745
0.000923216
0.000860255
0.00090106
0.000764792
0.000837364
0.00093777
0.000874559
0.000915659
0.000778012
0.000851799
0.000749928
0.000723074
0.000741492
0.000673359
0.000712869
0.000744163
0.000716455
0.000735368
0.000665974
0.000705846
0.000743899
0.000716162
0.000735089
0.000665666
0.00070554
0.000742255
0.000714328
0.000733344
0.00066373
0.00070365
0.000742104
0.000714161
0.000733183
0.000663555
0.000703475
0.000741435
0.000713421
0.000732471
0.000662779
0.000702705
0.000741363
0.000713342
0.000732394
0.000662696
0.000702622
0.000741092
0.000713043
0.000732105
0.000662381
0.000702309
0.000741064
0.000713012
0.000732076
0.00066235
0.000702277
0.000740992
0.000712932
0.000731998
0.000662265
0.000702193
0.000740992
0.000712932
0.000731998
0.000662265
0.000702193
0.000741064
0.000713012
0.000732076
0.00066235
0.000702277
0.000741092
0.000713043
0.000732105
0.000662381
0.000702309
0.000741363
0.000713342
0.000732394
0.000662696
0.000702622
0.000741435
0.000713421
0.000732471
0.000662779
0.000702705
0.000742104
0.000714161
0.000733183
0.000663555
0.000703475
0.000742255
0.000714328
0.000733344
0.00066373
0.00070365
0.000743899
0.000716162
0.000735089
0.000665666
0.00070554
0.000744163
0.000716455
0.000735368
0.000665974
0.000705846
0.000749928
0.000723074
0.000741492
0.000673359
0.000712869
0.000540045
0.000518014
0.000533536
0.000479113
0.000512958
0.000535239
0.000512821
0.000528552
0.00047367
0.000507528
0.00053502
0.000512592
0.000528326
0.000473443
0.000507292
0.000533624
0.000511121
0.000526878
0.000471977
0.000505792
0.000533498
0.000510989
0.000526747
0.000471847
0.000505655
0.000532931
0.000510396
0.000526156
0.000471258
0.000505045
0.000532871
0.000510333
0.000526094
0.000471196
0.00050498
0.000532641
0.000510093
0.000525854
0.000470958
0.000504732
0.000532618
0.00051007
0.00052583
0.000470934
0.000504706
0.000532556
0.000510005
0.000525765
0.00047087
0.00050464
0.000532556
0.000510005
0.000525765
0.00047087
0.00050464
0.000532618
0.00051007
0.00052583
0.000470934
0.000504706
0.000532641
0.000510093
0.000525854
0.000470958
0.000504732
0.000532871
0.000510333
0.000526094
0.000471196
0.00050498
0.000532931
0.000510396
0.000526156
0.000471258
0.000505045
0.000533498
0.000510989
0.000526747
0.000471847
0.000505655
0.000533624
0.000511121
0.000526878
0.000471977
0.000505792
0.00053502
0.000512592
0.000528326
0.000473443
0.000507292
0.000535239
0.000512821
0.000528552
0.00047367
0.000507528
0.000540045
0.000518014
0.000533536
0.000479113
0.000512958
0.000508519
0.000481843
0.000500679
0.000437765
0.000478904
0.000502559
0.000475803
0.000494645
0.000431924
0.00047273
0.000502287
0.000475536
0.00049437
0.000431679
0.000472459
0.000500557
0.000473817
0.000492614
0.000430088
0.000470738
0.000500401
0.000473664
0.000492455
0.000429947
0.000470581
0.000499699
0.000472972
0.000491741
0.000429309
0.000469882
0.000499625
0.0004729
0.000491665
0.000429242
0.000469807
0.000499341
0.00047262
0.000491376
0.000428984
0.000469523
0.000499313
0.000472592
0.000491347
0.000428958
0.000469494
0.000499237
0.000472517
0.000491269
0.000428888
0.000469418
0.000499237
0.000472517
0.000491269
0.000428888
0.000469418
0.000499313
0.000472592
0.000491347
0.000428958
0.000469494
0.000499341
0.00047262
0.000491376
0.000428984
0.000469523
0.000499625
0.0004729
0.000491665
0.000429242
0.000469807
0.000499699
0.000472972
0.000491741
0.000429309
0.000469882
0.000500401
0.000473664
0.000492455
0.000429947
0.000470581
0.000500557
0.000473817
0.000492614
0.000430088
0.000470738
0.000502287
0.000475536
0.00049437
0.000431679
0.000472459
0.000502559
0.000475803
0.000494645
0.000431924
0.00047273
0.000508519
0.000481843
0.000500679
0.000437765
0.000478904
0.000532491
0.000504309
0.000524562
0.000457362
0.000504254
0.000526221
0.000497946
0.000518211
0.000451212
0.000497776
0.000525932
0.000497661
0.000517918
0.000450951
0.000497488
0.000524082
0.000495823
0.000516042
0.000449249
0.000495646
0.000523916
0.000495659
0.000515872
0.000449099
0.000495479
0.000523165
0.000494918
0.000515108
0.000448416
0.00049473
0.000523086
0.000494841
0.000515027
0.000448344
0.00049465
0.000522782
0.000494541
0.000514717
0.000448067
0.000494345
0.000522752
0.000494511
0.000514686
0.00044804
0.000494315
0.00052267
0.000494431
0.000514602
0.000447965
0.000494233
0.00052267
0.000494431
0.000514602
0.000447965
0.000494233
0.000522752
0.000494511
0.000514686
0.00044804
0.000494315
0.000522782
0.000494541
0.000514717
0.000448067
0.000494345
0.000523086
0.000494841
0.000515027
0.000448344
0.00049465
0.000523165
0.000494918
0.000515108
0.000448416
0.00049473
0.000523916
0.000495659
0.000515872
0.000449099
0.000495479
0.000524082
0.000495823
0.000516042
0.000449249
0.000495646
0.000525932
0.000497661
0.000517918
0.000450951
0.000497488
0.000526221
0.000497946
0.000518211
0.000451212
0.000497776
0.000532491
0.000504309
0.000524562
0.000457362
0.000504254
0.000544919
0.000517454
0.000537691
0.000470863
0.000521286
0.000538863
0.000511257
0.000531541
0.000464808
0.000514983
0.000538581
0.000510977
0.000531255
0.000464548
0.000514698
0.000536756
0.000509149
0.000529399
0.000462836
0.000512859
0.000536593
0.000508987
0.000529232
0.000462686
0.000512693
0.000535851
0.000508249
0.000528474
0.000461998
0.000511944
0.000535773
0.000508172
0.000528394
0.000461926
0.000511864
0.000535472
0.000507874
0.000528087
0.000461647
0.00051156
0.000535442
0.000507844
0.000528056
0.00046162
0.000511529
0.000535362
0.000507764
0.000527973
0.000461545
0.000511447
0.000535362
0.000507764
0.000527973
0.000461545
0.000511447
0.000535442
0.000507844
0.000528056
0.00046162
0.000511529
0.000535472
0.000507874
0.000528087
0.000461647
0.00051156
0.000535773
0.000508172
0.000528394
0.000461926
0.000511864
0.000535851
0.000508249
0.000528474
0.000461998
0.000511944
0.000536593
0.000508987
0.000529232
0.000462686
0.000512693
0.000536756
0.000509149
0.000529399
0.000462836
0.000512859
0.000538581
0.000510977
0.000531255
0.000464548
0.000514698
0.000538863
0.000511257
0.000531541
0.000464808
0.000514983
0.000544919
0.000517454
0.000537691
0.000470863
0.000521286
0.000544434
0.000517767
0.000537911
0.000472109
0.000525801
0.000538597
0.000511783
0.000531982
0.00046624
0.000519726
0.000538323
0.00051151
0.000531704
0.000465986
0.000519448
0.000536527
0.000509708
0.000529876
0.000464292
0.000517628
0.000536368
0.000509549
0.000529713
0.000464143
0.000517465
0.000535636
0.000508821
0.000528966
0.000463461
0.000516723
0.00053556
0.000508745
0.000528887
0.00046339
0.000516645
0.000535263
0.00050845
0.000528584
0.000463113
0.000516343
0.000535234
0.000508421
0.000528554
0.000463086
0.000516313
0.000535154
0.000508341
0.000528472
0.000463011
0.000516231
0.000535154
0.000508341
0.000528472
0.000463011
0.000516231
0.000535234
0.000508421
0.000528554
0.000463086
0.000516313
0.000535263
0.00050845
0.000528584
0.000463113
0.000516343
0.00053556
0.000508745
0.000528887
0.00046339
0.000516645
0.000535636
0.000508821
0.000528966
0.000463461
0.000516723
0.000536368
0.000509549
0.000529713
0.000464143
0.000517465
0.000536527
0.000509708
0.000529876
0.000464292
0.000517628
0.000538323
0.00051151
0.000531704
0.000465986
0.000519448
0.000538597
0.000511783
0.000531982
0.00046624
0.000519726
0.000544434
0.000517767
0.000537911
0.000472109
0.000525801
0.000541623
0.000515363
0.000535649
0.000470294
0.000527366
0.000535909
0.000509513
0.00052985
0.000464564
0.000521441
0.000535638
0.000509245
0.000529576
0.000464314
0.000521166
0.000533848
0.00050745
0.000527755
0.000462626
0.00051935
0.000533689
0.000507293
0.000527593
0.000462479
0.000519188
0.000532959
0.000506565
0.000526847
0.000461798
0.000518446
0.000532883
0.00050649
0.000526769
0.000461727
0.000518368
0.000532586
0.000506196
0.000526466
0.000461451
0.000518066
0.000532557
0.000506167
0.000526436
0.000461424
0.000518036
0.000532477
0.000506087
0.000526354
0.00046135
0.000517954
0.000532477
0.000506087
0.000526354
0.00046135
0.000517954
0.000532557
0.000506167
0.000526436
0.000461424
0.000518036
0.000532586
0.000506196
0.000526466
0.000461451
0.000518066
0.000532883
0.00050649
0.000526769
0.000461727
0.000518368
0.000532959
0.000506565
0.000526847
0.000461798
0.000518446
0.000533689
0.000507293
0.000527593
0.000462479
0.000519188
0.000533848
0.00050745
0.000527755
0.000462626
0.00051935
0.000535638
0.000509245
0.000529576
0.000464314
0.000521166
0.000535909
0.000509513
0.00052985
0.000464564
0.000521441
0.000541623
0.000515363
0.000535649
0.000470294
0.000527366
0.000540282
0.00051428
0.000534794
0.000469643
0.000529738
0.000534656
0.00050853
0.00052909
0.000464018
0.000523921
0.000534387
0.000508264
0.000528818
0.000463771
0.000523648
0.000532593
0.000506468
0.000526995
0.000462082
0.000521827
0.000532435
0.000506311
0.000526834
0.000461936
0.000521665
0.000531702
0.000505582
0.000526086
0.000461253
0.00052092
0.000531626
0.000505507
0.000526008
0.000461183
0.000520841
0.000531329
0.000505212
0.000525704
0.000460905
0.000520538
0.000531299
0.000505183
0.000525674
0.000460878
0.000520508
0.000531219
0.000505103
0.000525592
0.000460804
0.000520426
0.000531219
0.000505103
0.000525592
0.000460804
0.000520426
0.000531299
0.000505183
0.000525674
0.000460878
0.000520508
0.000531329
0.000505212
0.000525704
0.000460905
0.000520538
0.000531626
0.000505507
0.000526008
0.000461183
0.000520841
0.000531702
0.000505582
0.000526086
0.000461253
0.00052092
0.000532435
0.000506311
0.000526834
0.000461936
0.000521665
0.000532593
0.000506468
0.000526995
0.000462082
0.000521827
0.000534387
0.000508264
0.000528818
0.000463771
0.000523648
0.000534656
0.00050853
0.00052909
0.000464018
0.000523921
0.000540282
0.00051428
0.000534794
0.000469643
0.000529738
0.000539863
0.000514134
0.000534856
0.000469996
0.000532389
0.00053433
0.000508484
0.000529251
0.00046447
0.000526669
0.000534064
0.000508221
0.000528982
0.000464225
0.000526397
0.000532269
0.000506424
0.000527158
0.000462535
0.000524571
0.000532112
0.000506268
0.000526997
0.000462389
0.000524409
0.000531377
0.000505538
0.000526248
0.000461705
0.000523661
0.000531301
0.000505464
0.00052617
0.000461635
0.000523583
0.000531002
0.000505167
0.000525865
0.000461356
0.000523278
0.000530973
0.000505138
0.000525835
0.000461329
0.000523248
0.000530893
0.000505059
0.000525753
0.000461254
0.000523165
0.000530893
0.000505059
0.000525753
0.000461254
0.000523165
0.000530973
0.000505138
0.000525835
0.000461329
0.000523248
0.000531002
0.000505167
0.000525865
0.000461356
0.000523278
0.000531301
0.000505464
0.00052617
0.000461635
0.000523583
0.000531377
0.000505538
0.000526248
0.000461705
0.000523661
0.000532112
0.000506268
0.000526997
0.000462389
0.000524409
0.000532269
0.000506424
0.000527158
0.000462535
0.000524571
0.000534064
0.000508221
0.000528982
0.000464225
0.000526397
0.00053433
0.000508484
0.000529251
0.00046447
0.000526669
0.000539863
0.000514134
0.000534856
0.000469996
0.000532389
0.000539519
0.000514085
0.000534987
0.000470541
0.000534176
0.000534086
0.00050854
0.000529486
0.000465117
0.000528539
0.000533823
0.00050828
0.00052922
0.000464874
0.00052827
0.000532029
0.000506486
0.000527399
0.000463184
0.000526439
0.000531872
0.000506331
0.000527239
0.000463038
0.000526278
0.000531136
0.0005056
0.000526489
0.000462352
0.000525526
0.000531061
0.000505525
0.000526412
0.000462282
0.000525448
0.000530762
0.000505228
0.000526106
0.000462004
0.000525141
0.000530733
0.0005052
0.000526076
0.000461977
0.000525111
0.000530652
0.00050512
0.000525994
0.000461901
0.000525028
0.000530652
0.00050512
0.000525994
0.000461901
0.000525028
0.000530733
0.0005052
0.000526076
0.000461977
0.000525111
0.000530762
0.000505228
0.000526106
0.000462004
0.000525141
0.000531061
0.000505525
0.000526412
0.000462282
0.000525448
0.000531136
0.0005056
0.000526489
0.000462352
0.000525526
0.000531872
0.000506331
0.000527239
0.000463038
0.000526278
0.000532029
0.000506486
0.000527399
0.000463184
0.000526439
0.000533823
0.00050828
0.00052922
0.000464874
0.00052827
0.000534086
0.00050854
0.000529486
0.000465117
0.000528539
0.000539519
0.000514085
0.000534987
0.000470541
0.000534176
0.000539058
0.000513915
0.000534985
0.000470979
0.000532833
0.000533722
0.000508474
0.000529587
0.000465654
0.000527292
0.000533462
0.000508216
0.000529324
0.000465414
0.000527025
0.000531671
0.000506425
0.000527505
0.000463724
0.000525198
0.000531515
0.000506271
0.000527346
0.00046358
0.000525037
0.000530778
0.00050554
0.000526596
0.000462893
0.000524285
0.000530703
0.000505466
0.000526519
0.000462823
0.000524207
0.000530403
0.000505168
0.000526212
0.000462543
0.0005239
0.000530375
0.00050514
0.000526183
0.000462517
0.00052387
0.000530294
0.00050506
0.0005261
0.000462441
0.000523787
0.000530294
0.00050506
0.0005261
0.000462441
0.000523787
0.000530375
0.00050514
0.000526183
0.000462517
0.00052387
0.000530403
0.000505168
0.000526212
0.000462543
0.0005239
0.000530703
0.000505466
0.000526519
0.000462823
0.000524207
0.000530778
0.00050554
0.000526596
0.000462893
0.000524285
0.000531515
0.000506271
0.000527346
0.00046358
0.000525037
0.000531671
0.000506425
0.000527505
0.000463724
0.000525198
0.000533462
0.000508216
0.000529324
0.000465414
0.000527025
0.000533722
0.000508474
0.000529587
0.000465654
0.000527292
0.000539058
0.000513915
0.000534985
0.000470979
0.000532833
0.00053856
0.000513694
0.000534926
0.000471284
0.000530599
0.000533319
0.000508354
0.000529628
0.000466058
0.000525157
0.000533062
0.0005081
0.000529368
0.00046582
0.000524894
0.000531273
0.000506312
0.000527552
0.000464132
0.000523072
0.000531118
0.000506158
0.000527394
0.000463988
0.000522913
0.000530381
0.000505427
0.000526643
0.0004633
0.000522161
0.000530306
0.000505353
0.000526567
0.00046323
0.000522083
0.000530005
0.000505055
0.00052626
0.00046295
0.000521776
0.000529977
0.000505027
0.00052623
0.000462923
0.000521746
0.000529896
0.000504947
0.000526148
0.000462848
0.000521663
0.000529896
0.000504947
0.000526148
0.000462848
0.000521663
0.000529977
0.000505027
0.00052623
0.000462923
0.000521746
0.000530005
0.000505055
0.00052626
0.00046295
0.000521776
0.000530306
0.000505353
0.000526567
0.00046323
0.000522083
0.000530381
0.000505427
0.000526643
0.0004633
0.000522161
0.000531118
0.000506158
0.000527394
0.000463988
0.000522913
0.000531273
0.000506312
0.000527552
0.000464132
0.000523072
0.000533062
0.0005081
0.000529368
0.00046582
0.000524894
0.000533319
0.000508354
0.000529628
0.000466058
0.000525157
0.00053856
0.000513694
0.000534926
0.000471284
0.000530599
0.000538086
0.000513487
0.000534874
0.000471504
0.000528631
0.000532938
0.000508245
0.000529674
0.000466374
0.000523286
0.000532683
0.000507993
0.000529416
0.000466139
0.000523026
0.000530897
0.000506208
0.000527604
0.000464453
0.00052121
0.000530743
0.000506056
0.000527447
0.00046431
0.000521051
0.000530005
0.000505324
0.000526696
0.000463621
0.0005203
0.000529931
0.000505251
0.000526619
0.000463552
0.000520222
0.00052963
0.000504953
0.000526312
0.000463271
0.000519915
0.000529601
0.000504924
0.000526283
0.000463244
0.000519885
0.00052952
0.000504844
0.0005262
0.000463168
0.000519802
0.00052952
0.000504844
0.0005262
0.000463168
0.000519802
0.000529601
0.000504924
0.000526283
0.000463244
0.000519885
0.00052963
0.000504953
0.000526312
0.000463271
0.000519915
0.000529931
0.000505251
0.000526619
0.000463552
0.000520222
0.000530005
0.000505324
0.000526696
0.000463621
0.0005203
0.000530743
0.000506056
0.000527447
0.00046431
0.000521051
0.000530897
0.000506208
0.000527604
0.000464453
0.00052121
0.000532683
0.000507993
0.000529416
0.000466139
0.000523026
0.000532938
0.000508245
0.000529674
0.000466374
0.000523286
0.000538086
0.000513487
0.000534874
0.000471504
0.000528631
0.000537644
0.000513302
0.000534839
0.000471661
0.00052693
0.000532586
0.000508155
0.000529734
0.000466627
0.000521679
0.000532334
0.000507906
0.00052948
0.000466394
0.000521422
0.000530551
0.000506125
0.000527671
0.00046471
0.000519611
0.000530397
0.000505974
0.000527515
0.000464568
0.000519453
0.000529659
0.000505242
0.000526763
0.000463878
0.000518702
0.000529585
0.000505168
0.000526687
0.000463809
0.000518625
0.000529283
0.00050487
0.000526379
0.000463528
0.000518318
0.000529255
0.000504842
0.00052635
0.000463501
0.000518288
0.000529174
0.000504761
0.000526267
0.000463425
0.000518205
0.000529174
0.000504761
0.000526267
0.000463425
0.000518205
0.000529255
0.000504842
0.00052635
0.000463501
0.000518288
0.000529283
0.00050487
0.000526379
0.000463528
0.000518318
0.000529585
0.000505168
0.000526687
0.000463809
0.000518625
0.000529659
0.000505242
0.000526763
0.000463878
0.000518702
0.000530397
0.000505974
0.000527515
0.000464568
0.000519453
0.000530551
0.000506125
0.000527671
0.00046471
0.000519611
0.000532334
0.000507906
0.00052948
0.000466394
0.000521422
0.000532586
0.000508156
0.000529734
0.000466627
0.000521679
0.000537644
0.000513302
0.000534839
0.000471661
0.00052693
0.000537223
0.00051313
0.000534814
0.000471755
0.000525294
0.000532254
0.000508078
0.000529802
0.000466815
0.000520134
0.000532004
0.000507831
0.00052955
0.000466584
0.00051988
0.000530225
0.000506054
0.000527746
0.000464904
0.000518074
0.000530072
0.000505904
0.00052759
0.000464762
0.000517918
0.000529333
0.000505171
0.000526838
0.000464072
0.000517167
0.00052926
0.000505098
0.000526762
0.000464004
0.000517091
0.000528958
0.0005048
0.000526454
0.000463722
0.000516783
0.000528929
0.000504772
0.000526425
0.000463695
0.000516753
0.000528848
0.000504691
0.000526342
0.000463619
0.00051667
0.000528848
0.000504691
0.000526342
0.000463619
0.00051667
0.000528929
0.000504772
0.000526425
0.000463695
0.000516753
0.000528958
0.0005048
0.000526454
0.000463722
0.000516783
0.00052926
0.000505098
0.000526762
0.000464004
0.000517091
0.000529333
0.000505171
0.000526838
0.000464072
0.000517167
0.000530072
0.000505904
0.00052759
0.000464762
0.000517918
0.000530225
0.000506054
0.000527746
0.000464904
0.000518074
0.000532004
0.000507831
0.00052955
0.000466584
0.00051988
0.000532254
0.000508078
0.000529802
0.000466815
0.000520134
0.000537223
0.00051313
0.000534814
0.000471755
0.000525294
0.00053682
0.000512968
0.000534796
0.000471785
0.000523651
0.000531938
0.000508008
0.000529875
0.000466936
0.00051858
0.000531691
0.000507764
0.000529625
0.000466708
0.000518329
0.000529914
0.000505991
0.000527825
0.000465031
0.00051653
0.000529763
0.000505841
0.00052767
0.000464891
0.000516374
0.000529024
0.000505109
0.000526918
0.0004642
0.000515624
0.00052895
0.000505036
0.000526843
0.000464132
0.000515548
0.000528648
0.000504737
0.000526535
0.00046385
0.00051524
0.00052862
0.000504709
0.000526505
0.000463823
0.00051521
0.000528538
0.000504628
0.000526422
0.000463747
0.000515127
0.000528538
0.000504628
0.000526422
0.000463747
0.000515127
0.00052862
0.000504709
0.000526505
0.000463823
0.00051521
0.000528648
0.000504737
0.000526535
0.00046385
0.00051524
0.00052895
0.000505036
0.000526843
0.000464132
0.000515548
0.000529024
0.000505109
0.000526918
0.0004642
0.000515624
0.000529763
0.000505841
0.00052767
0.000464891
0.000516374
0.000529914
0.000505991
0.000527825
0.000465031
0.00051653
0.000531691
0.000507764
0.000529625
0.000466708
0.000518329
0.000531938
0.000508008
0.000529875
0.000466936
0.00051858
0.00053682
0.000512968
0.000534796
0.000471785
0.000523651
0.000536434
0.000512816
0.000534785
0.000471749
0.000522015
0.000531637
0.000507945
0.000529953
0.000466991
0.00051703
0.000531392
0.000507703
0.000529706
0.000466765
0.000516782
0.00052962
0.000505935
0.00052791
0.000465093
0.000514989
0.000529469
0.000505786
0.000527757
0.000464953
0.000514835
0.00052873
0.000505054
0.000527004
0.000464263
0.000514084
0.000528657
0.000504982
0.000526929
0.000464195
0.000514009
0.000528354
0.000504682
0.000526621
0.000463912
0.000513701
0.000528326
0.000504654
0.000526592
0.000463886
0.000513672
0.000528244
0.000504573
0.000526508
0.000463809
0.000513588
0.000528244
0.000504573
0.000526508
0.000463809
0.000513588
0.000528326
0.000504654
0.000526592
0.000463886
0.000513672
0.000528354
0.000504682
0.000526621
0.000463912
0.000513701
0.000528657
0.000504982
0.000526929
0.000464195
0.000514009
0.00052873
0.000505054
0.000527004
0.000464263
0.000514084
0.000529469
0.000505786
0.000527757
0.000464953
0.000514835
0.00052962
0.000505935
0.00052791
0.000465093
0.000514989
0.000531392
0.000507703
0.000529706
0.000466765
0.000516782
0.000531637
0.000507945
0.000529953
0.000466991
0.00051703
0.000536434
0.000512816
0.000534785
0.000471749
0.000522015
0.000536065
0.000512674
0.000534783
0.000471649
0.000520398
0.000531351
0.00050789
0.000530039
0.00046698
0.000515497
0.000531109
0.000507651
0.000529795
0.000466757
0.000515252
0.000529341
0.000505887
0.000528004
0.000465089
0.000513466
0.000529191
0.00050574
0.000527851
0.000464951
0.000513312
0.000528451
0.000505007
0.000527099
0.00046426
0.000512563
0.000528379
0.000504935
0.000527024
0.000464193
0.000512488
0.000528076
0.000504636
0.000526715
0.00046391
0.00051218
0.000528048
0.000504608
0.000526686
0.000463884
0.00051215
0.000527966
0.000504527
0.000526603
0.000463807
0.000512067
0.000527966
0.000504527
0.000526603
0.000463807
0.000512067
0.000528048
0.000504608
0.000526686
0.000463884
0.00051215
0.000528076
0.000504636
0.000526715
0.00046391
0.00051218
0.000528379
0.000504935
0.000527024
0.000464193
0.000512488
0.000528451
0.000505007
0.000527099
0.00046426
0.000512563
0.000529191
0.00050574
0.000527851
0.000464951
0.000513312
0.000529341
0.000505887
0.000528004
0.000465089
0.000513466
0.000531109
0.000507651
0.000529795
0.000466757
0.000515252
0.000531351
0.00050789
0.000530039
0.00046698
0.000515497
0.000536065
0.000512674
0.000534783
0.000471649
0.000520398
0.000535714
0.000512543
0.000534793
0.000471487
0.000518731
0.000531081
0.000507844
0.000530134
0.000466905
0.000513913
0.000530841
0.000507607
0.000529892
0.000466684
0.000513671
0.000529078
0.000505849
0.000528106
0.000465022
0.000511892
0.000528929
0.000505702
0.000527955
0.000464884
0.00051174
0.000528189
0.000504969
0.000527202
0.000464194
0.000510991
0.000528117
0.000504898
0.000527128
0.000464127
0.000510916
0.000527813
0.000504598
0.000526819
0.000463844
0.000510608
0.000527786
0.000504571
0.00052679
0.000463818
0.000510579
0.000527703
0.00050449
0.000526706
0.000463741
0.000510496
0.000527703
0.00050449
0.000526706
0.000463741
0.000510496
0.000527786
0.000504571
0.00052679
0.000463818
0.000510579
0.000527813
0.000504598
0.000526819
0.000463844
0.000510608
0.000528117
0.000504898
0.000527128
0.000464127
0.000510916
0.000528189
0.000504969
0.000527202
0.000464194
0.000510991
0.000528929
0.000505702
0.000527955
0.000464884
0.00051174
0.000529078
0.000505849
0.000528106
0.000465022
0.000511892
0.000530841
0.000507607
0.000529892
0.000466684
0.000513671
0.000531081
0.000507844
0.000530134
0.000466905
0.000513913
0.000535714
0.000512543
0.000534793
0.000471487
0.000518731
-1.68929e-05
1.63733e-05
3.17457e-06
7.6558e-07
2.69296e-07
1.84377e-07
1.66296e-07
1.62724e-07
1.61872e-07
1.61678e-07
1.6162e-07
1.61594e-07
1.61496e-07
1.61386e-07
1.60519e-07
1.59852e-07
1.53415e-07
1.50645e-07
1.11916e-07
1.07812e-07
-1.69888e-05
1.63451e-05
3.19959e-06
7.7335e-07
2.71212e-07
1.84838e-07
1.66391e-07
1.62734e-07
1.61858e-07
1.61659e-07
1.61599e-07
1.61572e-07
1.61472e-07
1.6136e-07
1.60478e-07
1.59803e-07
1.53296e-07
1.50518e-07
1.11616e-07
1.076e-07
-1.69853e-05
1.63376e-05
3.19757e-06
7.7313e-07
2.71185e-07
1.84839e-07
1.66392e-07
1.62734e-07
1.61858e-07
1.61659e-07
1.61598e-07
1.61572e-07
1.61471e-07
1.61359e-07
1.60478e-07
1.59802e-07
1.53294e-07
1.50516e-07
1.11613e-07
1.07598e-07
-1.69664e-05
1.62925e-05
3.18475e-06
7.71558e-07
2.70956e-07
1.84824e-07
1.66391e-07
1.62735e-07
1.61858e-07
1.61658e-07
1.61597e-07
1.61571e-07
1.6147e-07
1.61358e-07
1.60475e-07
1.59799e-07
1.53286e-07
1.50509e-07
1.11601e-07
1.07592e-07
-1.69638e-05
1.62876e-05
3.18314e-06
7.7131e-07
2.70907e-07
1.84816e-07
1.6639e-07
1.62734e-07
1.61858e-07
1.61658e-07
1.61597e-07
1.61571e-07
1.6147e-07
1.61358e-07
1.60475e-07
1.59799e-07
1.53286e-07
1.50509e-07
1.11601e-07
1.07591e-07
-1.69541e-05
1.62686e-05
3.17704e-06
7.70418e-07
2.70735e-07
1.84791e-07
1.66385e-07
1.62734e-07
1.61857e-07
1.61658e-07
1.61597e-07
1.61571e-07
1.6147e-07
1.61357e-07
1.60475e-07
1.59799e-07
1.53286e-07
1.50509e-07
1.11601e-07
1.07591e-07
-1.6953e-05
1.62663e-05
3.17629e-06
7.703e-07
2.70711e-07
1.84787e-07
1.66384e-07
1.62733e-07
1.61857e-07
1.61658e-07
1.61597e-07
1.61571e-07
1.6147e-07
1.61357e-07
1.60475e-07
1.59799e-07
1.53286e-07
1.50509e-07
1.11601e-07
1.07591e-07
-1.69492e-05
1.62587e-05
3.17395e-06
7.69957e-07
2.70643e-07
1.84776e-07
1.66382e-07
1.62733e-07
1.61857e-07
1.61658e-07
1.61597e-07
1.61571e-07
1.6147e-07
1.61357e-07
1.60475e-07
1.59799e-07
1.53286e-07
1.50509e-07
1.11601e-07
1.07591e-07
-1.69488e-05
1.62579e-05
3.17368e-06
7.69915e-07
2.70635e-07
1.84775e-07
1.66382e-07
1.62733e-07
1.61857e-07
1.61658e-07
1.61597e-07
1.61571e-07
1.6147e-07
1.61357e-07
1.60475e-07
1.59799e-07
1.53286e-07
1.50509e-07
1.11601e-07
1.07591e-07
-1.69478e-05
1.62559e-05
3.17308e-06
7.69828e-07
2.70618e-07
1.84772e-07
1.66381e-07
1.62733e-07
1.61857e-07
1.61658e-07
1.61597e-07
1.61571e-07
1.6147e-07
1.61357e-07
1.60475e-07
1.59799e-07
1.53286e-07
1.50509e-07
1.11601e-07
1.07591e-07
-1.69478e-05
1.62559e-05
3.17308e-06
7.69828e-07
2.70618e-07
1.84772e-07
1.66381e-07
1.62733e-07
1.61857e-07
1.61658e-07
1.61597e-07
1.61571e-07
1.6147e-07
1.61357e-07
1.60475e-07
1.59799e-07
1.53286e-07
1.50509e-07
1.11601e-07
1.07591e-07
-1.69488e-05
1.62579e-05
3.17368e-06
7.69915e-07
2.70635e-07
1.84775e-07
1.66382e-07
1.62733e-07
1.61857e-07
1.61658e-07
1.61597e-07
1.61571e-07
1.6147e-07
1.61357e-07
1.60475e-07
1.59799e-07
1.53286e-07
1.50509e-07
1.11601e-07
1.07591e-07
-1.69492e-05
1.62587e-05
3.17395e-06
7.69957e-07
2.70643e-07
1.84776e-07
1.66382e-07
1.62733e-07
1.61857e-07
1.61658e-07
1.61597e-07
1.61571e-07
1.6147e-07
1.61357e-07
1.60475e-07
1.59799e-07
1.53286e-07
1.50509e-07
1.11601e-07
1.07591e-07
-1.6953e-05
1.62663e-05
3.17629e-06
7.703e-07
2.70711e-07
1.84787e-07
1.66384e-07
1.62733e-07
1.61857e-07
1.61658e-07
1.61597e-07
1.61571e-07
1.6147e-07
1.61357e-07
1.60475e-07
1.59799e-07
1.53286e-07
1.50509e-07
1.11601e-07
1.07591e-07
-1.69541e-05
1.62686e-05
3.17704e-06
7.70418e-07
2.70735e-07
1.84791e-07
1.66385e-07
1.62734e-07
1.61857e-07
1.61658e-07
1.61597e-07
1.61571e-07
1.6147e-07
1.61357e-07
1.60475e-07
1.59799e-07
1.53286e-07
1.50509e-07
1.11601e-07
1.07591e-07
-1.69638e-05
1.62876e-05
3.18314e-06
7.7131e-07
2.70907e-07
1.84816e-07
1.6639e-07
1.62734e-07
1.61858e-07
1.61658e-07
1.61597e-07
1.61571e-07
1.6147e-07
1.61358e-07
1.60475e-07
1.59799e-07
1.53286e-07
1.50509e-07
1.11601e-07
1.07591e-07
-1.69664e-05
1.62925e-05
3.18475e-06
7.71558e-07
2.70956e-07
1.84824e-07
1.66391e-07
1.62735e-07
1.61858e-07
1.61658e-07
1.61597e-07
1.61571e-07
1.6147e-07
1.61358e-07
1.60475e-07
1.59799e-07
1.53286e-07
1.50509e-07
1.11601e-07
1.07592e-07
-1.69853e-05
1.63376e-05
3.19757e-06
7.7313e-07
2.71185e-07
1.84839e-07
1.66392e-07
1.62734e-07
1.61858e-07
1.61659e-07
1.61598e-07
1.61572e-07
1.61471e-07
1.61359e-07
1.60478e-07
1.59802e-07
1.53294e-07
1.50516e-07
1.11613e-07
1.07598e-07
-1.69888e-05
1.63451e-05
3.19959e-06
7.7335e-07
2.71212e-07
1.84838e-07
1.66391e-07
1.62734e-07
1.61858e-07
1.61659e-07
1.61599e-07
1.61572e-07
1.61472e-07
1.6136e-07
1.60478e-07
1.59803e-07
1.53296e-07
1.50518e-07
1.11616e-07
1.076e-07
-1.68929e-05
1.63733e-05
3.17457e-06
7.6558e-07
2.69296e-07
1.84377e-07
1.66296e-07
1.62724e-07
1.61872e-07
1.61678e-07
1.6162e-07
1.61594e-07
1.61496e-07
1.61386e-07
1.60519e-07
1.59852e-07
1.53415e-07
1.50645e-07
1.11916e-07
1.07812e-07
-1.65184e-05
1.65506e-05
3.20353e-06
7.71688e-07
2.70447e-07
1.8463e-07
1.66343e-07
1.62803e-07
1.61964e-07
1.61767e-07
1.61708e-07
1.61682e-07
1.61582e-07
1.6147e-07
1.60564e-07
1.59834e-07
1.53333e-07
1.50537e-07
1.11321e-07
1.07188e-07
-1.66085e-05
1.65224e-05
3.22884e-06
7.79544e-07
2.72386e-07
1.85096e-07
1.6644e-07
1.6281e-07
1.6195e-07
1.61748e-07
1.61687e-07
1.6166e-07
1.61558e-07
1.61444e-07
1.60522e-07
1.59784e-07
1.53212e-07
1.5041e-07
1.11017e-07
1.06972e-07
-1.66048e-05
1.65149e-05
3.22679e-06
7.79321e-07
2.72358e-07
1.85097e-07
1.66441e-07
1.62811e-07
1.6195e-07
1.61748e-07
1.61687e-07
1.6166e-07
1.61558e-07
1.61444e-07
1.60521e-07
1.59783e-07
1.53211e-07
1.50408e-07
1.11014e-07
1.0697e-07
-1.65848e-05
1.64693e-05
3.21386e-06
7.77735e-07