/*--------------------------------*- C++ -*----------------------------------*\
  =========                 |
  \\      /  F ield         | OpenFOAM: The Open Source CFD Toolbox
   \\    /   O peration     | Website:  https://openfoam.org
    \\  /    A nd           | Version:  8
     \\/     M anipulation  |
\*---------------------------------------------------------------------------*/
FoamFile
{
    version     2.0;
    format      ascii;
    class       volScalarField;
    location    "2.1";
    object      S1;
}
// * * * * * * * * * * * * * * * * * * * * * * * * * * * * * * * * * * * * * //

dimensions      [0 1 -1 0 0 0 0];

internalField   nonuniform List<scalar> 
180000
(
-1.31523e-28
-5.42295e-24
-1.94826e-19
-5.78825e-15
-1.31649e-10
-1.43755e-28
-5.86791e-24
-2.07999e-19
-6.05544e-15
-1.32482e-10
-1.44122e-28
-5.88132e-24
-2.08406e-19
-6.06453e-15
-1.3258e-10
-1.45361e-28
-5.92705e-24
-2.098e-19
-6.09583e-15
-1.32907e-10
-1.4541e-28
-5.92888e-24
-2.09858e-19
-6.09729e-15
-1.32935e-10
-1.4553e-28
-5.93352e-24
-2.10009e-19
-6.10131e-15
-1.33018e-10
-1.45539e-28
-5.93386e-24
-2.10021e-19
-6.10169e-15
-1.3303e-10
-1.45559e-28
-5.93472e-24
-2.10053e-19
-6.1027e-15
-1.33058e-10
-1.4556e-28
-5.93479e-24
-2.10056e-19
-6.10282e-15
-1.33062e-10
-1.45564e-28
-5.93496e-24
-2.10062e-19
-6.10305e-15
-1.33069e-10
-1.45564e-28
-5.93495e-24
-2.10062e-19
-6.10305e-15
-1.33069e-10
-1.4556e-28
-5.93479e-24
-2.10056e-19
-6.10282e-15
-1.33062e-10
-1.45559e-28
-5.93472e-24
-2.10053e-19
-6.1027e-15
-1.33058e-10
-1.45539e-28
-5.93386e-24
-2.10021e-19
-6.10169e-15
-1.3303e-10
-1.4553e-28
-5.93352e-24
-2.10009e-19
-6.10131e-15
-1.33018e-10
-1.4541e-28
-5.92888e-24
-2.09858e-19
-6.09729e-15
-1.32935e-10
-1.45361e-28
-5.92705e-24
-2.098e-19
-6.09583e-15
-1.32907e-10
-1.44122e-28
-5.88132e-24
-2.08406e-19
-6.06453e-15
-1.3258e-10
-1.43755e-28
-5.86791e-24
-2.07999e-19
-6.05544e-15
-1.32482e-10
-1.31523e-28
-5.42295e-24
-1.94826e-19
-5.78825e-15
-1.31649e-10
-1.31519e-28
-5.42272e-24
-1.94803e-19
-5.77845e-15
-1.14794e-10
-1.43751e-28
-5.86765e-24
-2.07973e-19
-6.04106e-15
-1.07629e-10
-1.44117e-28
-5.88106e-24
-2.0838e-19
-6.05009e-15
-1.07616e-10
-1.45356e-28
-5.92678e-24
-2.09774e-19
-6.0812e-15
-1.07561e-10
-1.45405e-28
-5.92861e-24
-2.09832e-19
-6.08266e-15
-1.07606e-10
-1.45526e-28
-5.93325e-24
-2.09983e-19
-6.08673e-15
-1.07759e-10
-1.45534e-28
-5.93359e-24
-2.09995e-19
-6.08713e-15
-1.07784e-10
-1.45554e-28
-5.93445e-24
-2.10026e-19
-6.08816e-15
-1.07848e-10
-1.45555e-28
-5.93452e-24
-2.1003e-19
-6.08828e-15
-1.07857e-10
-1.45559e-28
-5.93468e-24
-2.10036e-19
-6.08852e-15
-1.07874e-10
-1.45559e-28
-5.93468e-24
-2.10036e-19
-6.08852e-15
-1.07874e-10
-1.45555e-28
-5.93452e-24
-2.1003e-19
-6.08828e-15
-1.07857e-10
-1.45554e-28
-5.93445e-24
-2.10026e-19
-6.08816e-15
-1.07848e-10
-1.45534e-28
-5.93359e-24
-2.09995e-19
-6.08713e-15
-1.07784e-10
-1.45526e-28
-5.93325e-24
-2.09983e-19
-6.08673e-15
-1.07759e-10
-1.45405e-28
-5.92861e-24
-2.09832e-19
-6.08266e-15
-1.07606e-10
-1.45356e-28
-5.92678e-24
-2.09774e-19
-6.0812e-15
-1.07561e-10
-1.44117e-28
-5.88106e-24
-2.0838e-19
-6.05009e-15
-1.07616e-10
-1.43751e-28
-5.86765e-24
-2.07973e-19
-6.04106e-15
-1.07629e-10
-1.31519e-28
-5.42272e-24
-1.94803e-19
-5.77845e-15
-1.14794e-10
-1.31515e-28
-5.42217e-24
-1.94518e-19
-5.37896e-15
5.57348e-10
-1.43746e-28
-5.86704e-24
-2.07647e-19
-5.57984e-15
6.68497e-10
-1.44113e-28
-5.88045e-24
-2.08053e-19
-5.5882e-15
6.69798e-10
-1.45352e-28
-5.92617e-24
-2.09447e-19
-5.61755e-15
6.74069e-10
-1.45401e-28
-5.928e-24
-2.09505e-19
-5.61929e-15
6.73708e-10
-1.45521e-28
-5.93264e-24
-2.09658e-19
-5.62452e-15
6.72236e-10
-1.45529e-28
-5.93298e-24
-2.0967e-19
-5.62508e-15
6.71999e-10
-1.4555e-28
-5.93384e-24
-2.09702e-19
-5.62664e-15
6.71291e-10
-1.45551e-28
-5.93391e-24
-2.09705e-19
-5.62684e-15
6.712e-10
-1.45555e-28
-5.93407e-24
-2.09712e-19
-5.62721e-15
6.71015e-10
-1.45555e-28
-5.93407e-24
-2.09712e-19
-5.62721e-15
6.71015e-10
-1.45551e-28
-5.93391e-24
-2.09705e-19
-5.62684e-15
6.712e-10
-1.4555e-28
-5.93384e-24
-2.09702e-19
-5.62664e-15
6.71291e-10
-1.45529e-28
-5.93298e-24
-2.0967e-19
-5.62508e-15
6.71999e-10
-1.45521e-28
-5.93264e-24
-2.09658e-19
-5.62452e-15
6.72236e-10
-1.45401e-28
-5.928e-24
-2.09505e-19
-5.61929e-15
6.73708e-10
-1.45352e-28
-5.92617e-24
-2.09447e-19
-5.61755e-15
6.74069e-10
-1.44113e-28
-5.88045e-24
-2.08053e-19
-5.5882e-15
6.69798e-10
-1.43746e-28
-5.86704e-24
-2.07647e-19
-5.57984e-15
6.68497e-10
-1.31515e-28
-5.42217e-24
-1.94518e-19
-5.37896e-15
5.57348e-10
-1.31509e-28
-5.41978e-24
-1.91915e-19
-1.74989e-15
6.10224e-09
-1.4374e-28
-5.86444e-24
-2.04815e-19
-1.61807e-15
6.72448e-09
-1.44107e-28
-5.87786e-24
-2.0522e-19
-1.62359e-15
6.73137e-09
-1.45346e-28
-5.92358e-24
-2.06616e-19
-1.64762e-15
6.75373e-09
-1.45395e-28
-5.92541e-24
-2.06676e-19
-1.65133e-15
6.75149e-09
-1.45516e-28
-5.93006e-24
-2.06838e-19
-1.66504e-15
6.74212e-09
-1.45524e-28
-5.93039e-24
-2.06851e-19
-1.66675e-15
6.74067e-09
-1.45544e-28
-5.93126e-24
-2.06887e-19
-1.67215e-15
6.73617e-09
-1.45545e-28
-5.93133e-24
-2.06891e-19
-1.67278e-15
6.73562e-09
-1.45549e-28
-5.9315e-24
-2.06899e-19
-1.67418e-15
6.73443e-09
-1.45549e-28
-5.9315e-24
-2.06899e-19
-1.67418e-15
6.73443e-09
-1.45545e-28
-5.93133e-24
-2.06891e-19
-1.67278e-15
6.73562e-09
-1.45544e-28
-5.93126e-24
-2.06887e-19
-1.67215e-15
6.73617e-09
-1.45524e-28
-5.93039e-24
-2.06851e-19
-1.66675e-15
6.74067e-09
-1.45516e-28
-5.93006e-24
-2.06838e-19
-1.66504e-15
6.74212e-09
-1.45395e-28
-5.92541e-24
-2.06676e-19
-1.65133e-15
6.75149e-09
-1.45346e-28
-5.92358e-24
-2.06616e-19
-1.64762e-15
6.75373e-09
-1.44107e-28
-5.87786e-24
-2.0522e-19
-1.62359e-15
6.73137e-09
-1.4374e-28
-5.86444e-24
-2.04815e-19
-1.61807e-15
6.72448e-09
-1.31509e-28
-5.41978e-24
-1.91915e-19
-1.74989e-15
6.10224e-09
-1.31497e-28
-5.40903e-24
-1.78791e-19
1.47175e-14
2.80815e-08
-1.43727e-28
-5.85309e-24
-1.90939e-19
1.58353e-14
3.00039e-08
-1.44094e-28
-5.86651e-24
-1.91344e-19
1.58357e-14
3.0023e-08
-1.45333e-28
-5.91227e-24
-1.92772e-19
1.58126e-14
3.0084e-08
-1.45382e-28
-5.91411e-24
-1.92842e-19
1.58012e-14
3.00759e-08
-1.45503e-28
-5.9188e-24
-1.93045e-19
1.57542e-14
3.00422e-08
-1.45511e-28
-5.91914e-24
-1.93064e-19
1.57482e-14
3.00371e-08
-1.45531e-28
-5.92002e-24
-1.93118e-19
1.57279e-14
3.00211e-08
-1.45532e-28
-5.9201e-24
-1.93123e-19
1.57256e-14
3.00191e-08
-1.45536e-28
-5.92027e-24
-1.93136e-19
1.57203e-14
3.00148e-08
-1.45536e-28
-5.92027e-24
-1.93136e-19
1.57203e-14
3.00148e-08
-1.45532e-28
-5.9201e-24
-1.93123e-19
1.57256e-14
3.00191e-08
-1.45531e-28
-5.92002e-24
-1.93118e-19
1.57279e-14
3.00211e-08
-1.45511e-28
-5.91914e-24
-1.93064e-19
1.57482e-14
3.00371e-08
-1.45503e-28
-5.9188e-24
-1.93045e-19
1.57542e-14
3.00422e-08
-1.45382e-28
-5.91411e-24
-1.92842e-19
1.58012e-14
3.00759e-08
-1.45333e-28
-5.91227e-24
-1.92772e-19
1.58126e-14
3.0084e-08
-1.44094e-28
-5.86651e-24
-1.91344e-19
1.58357e-14
3.0023e-08
-1.43727e-28
-5.85309e-24
-1.90939e-19
1.58353e-14
3.00039e-08
-1.31497e-28
-5.40903e-24
-1.78791e-19
1.47175e-14
2.80815e-08
-1.3146e-28
-5.37057e-24
-1.34483e-19
6.34553e-14
8.32018e-08
-1.43689e-28
-5.81325e-24
-1.44982e-19
6.64743e-14
8.7141e-08
-1.44055e-28
-5.82669e-24
-1.45397e-19
6.6479e-14
8.71748e-08
-1.45295e-28
-5.87265e-24
-1.46969e-19
6.64133e-14
8.72746e-08
-1.45344e-28
-5.87453e-24
-1.47069e-19
6.63815e-14
8.72545e-08
-1.45465e-28
-5.87937e-24
-1.47404e-19
6.62459e-14
8.71708e-08
-1.45473e-28
-5.87972e-24
-1.47438e-19
6.62287e-14
8.71586e-08
-1.45493e-28
-5.88067e-24
-1.47549e-19
6.61694e-14
8.71191e-08
-1.45494e-28
-5.88075e-24
-1.4756e-19
6.61628e-14
8.71145e-08
-1.45498e-28
-5.88094e-24
-1.47588e-19
6.6147e-14
8.71039e-08
-1.45498e-28
-5.88094e-24
-1.47588e-19
6.6147e-14
8.71039e-08
-1.45494e-28
-5.88075e-24
-1.4756e-19
6.61628e-14
8.71145e-08
-1.45493e-28
-5.88067e-24
-1.47549e-19
6.61694e-14
8.71191e-08
-1.45473e-28
-5.87972e-24
-1.47438e-19
6.62287e-14
8.71586e-08
-1.45465e-28
-5.87937e-24
-1.47404e-19
6.62459e-14
8.71708e-08
-1.45344e-28
-5.87453e-24
-1.47069e-19
6.63815e-14
8.72545e-08
-1.45295e-28
-5.87265e-24
-1.46969e-19
6.64133e-14
8.72746e-08
-1.44055e-28
-5.82669e-24
-1.45397e-19
6.6479e-14
8.71748e-08
-1.43689e-28
-5.81325e-24
-1.44982e-19
6.64743e-14
8.7141e-08
-1.3146e-28
-5.37057e-24
-1.34483e-19
6.34553e-14
8.32018e-08
-1.31352e-28
-5.26113e-24
-2.06232e-20
1.71995e-13
1.85127e-07
-1.43578e-28
-5.70146e-24
-2.85098e-20
1.77621e-13
1.91109e-07
-1.43945e-28
-5.71499e-24
-2.89711e-20
1.77615e-13
1.91149e-07
-1.45185e-28
-5.76159e-24
-3.09828e-20
1.77377e-13
1.91233e-07
-1.45235e-28
-5.76356e-24
-3.11557e-20
1.77303e-13
1.91194e-07
-1.45356e-28
-5.76882e-24
-3.18156e-20
1.76983e-13
1.91028e-07
-1.45364e-28
-5.76923e-24
-3.18876e-20
1.76943e-13
1.91005e-07
-1.45384e-28
-5.77035e-24
-3.21355e-20
1.76804e-13
1.90929e-07
-1.45386e-28
-5.77045e-24
-3.21617e-20
1.76789e-13
1.9092e-07
-1.4539e-28
-5.77068e-24
-3.22262e-20
1.76752e-13
1.90899e-07
-1.4539e-28
-5.77068e-24
-3.22262e-20
1.76752e-13
1.90899e-07
-1.45386e-28
-5.77045e-24
-3.21617e-20
1.76789e-13
1.9092e-07
-1.45384e-28
-5.77035e-24
-3.21355e-20
1.76804e-13
1.90929e-07
-1.45364e-28
-5.76923e-24
-3.18876e-20
1.76943e-13
1.91005e-07
-1.45356e-28
-5.76882e-24
-3.18156e-20
1.76983e-13
1.91028e-07
-1.45235e-28
-5.76356e-24
-3.11557e-20
1.77303e-13
1.91194e-07
-1.45185e-28
-5.76159e-24
-3.09828e-20
1.77377e-13
1.91233e-07
-1.43945e-28
-5.71499e-24
-2.89711e-20
1.77615e-13
1.91149e-07
-1.43578e-28
-5.70146e-24
-2.85098e-20
1.77621e-13
1.91109e-07
-1.31352e-28
-5.26114e-24
-2.06232e-20
1.71995e-13
1.85127e-07
-1.31074e-28
-5.0012e-24
2.20848e-19
3.7086e-13
3.38749e-07
-1.43298e-28
-5.43876e-24
2.15928e-19
3.79065e-13
3.45954e-07
-1.43666e-28
-5.4525e-24
2.1534e-19
3.79012e-13
3.45977e-07
-1.44909e-28
-5.50076e-24
2.12273e-19
3.78342e-13
3.45926e-07
-1.44958e-28
-5.50295e-24
2.11951e-19
3.78194e-13
3.45859e-07
-1.45081e-28
-5.50919e-24
2.10622e-19
3.77548e-13
3.45574e-07
-1.45089e-28
-5.50971e-24
2.10474e-19
3.7747e-13
3.45536e-07
-1.4511e-28
-5.51123e-24
2.09946e-19
3.77192e-13
3.45407e-07
-1.45111e-28
-5.51138e-24
2.0989e-19
3.77162e-13
3.45393e-07
-1.45115e-28
-5.51172e-24
2.09751e-19
3.77087e-13
3.45358e-07
-1.45115e-28
-5.51172e-24
2.09751e-19
3.77087e-13
3.45358e-07
-1.45111e-28
-5.51138e-24
2.0989e-19
3.77162e-13
3.45393e-07
-1.4511e-28
-5.51123e-24
2.09946e-19
3.77192e-13
3.45407e-07
-1.45089e-28
-5.50971e-24
2.10474e-19
3.7747e-13
3.45536e-07
-1.45081e-28
-5.50919e-24
2.10622e-19
3.77548e-13
3.45574e-07
-1.44958e-28
-5.50295e-24
2.11951e-19
3.78194e-13
3.45859e-07
-1.44909e-28
-5.50076e-24
2.12273e-19
3.78342e-13
3.45926e-07
-1.43666e-28
-5.4525e-24
2.1534e-19
3.79012e-13
3.45977e-07
-1.43298e-28
-5.43876e-24
2.15928e-19
3.79065e-13
3.45954e-07
-1.31074e-28
-5.0012e-24
2.20848e-19
3.7086e-13
3.38749e-07
-1.30446e-28
-4.46329e-24
6.66664e-19
6.88912e-13
5.41017e-07
-1.4267e-28
-4.89959e-24
6.63599e-19
6.98634e-13
5.48111e-07
-1.43039e-28
-4.91382e-24
6.62733e-19
6.98473e-13
5.48088e-07
-1.44287e-28
-4.96572e-24
6.57532e-19
6.96953e-13
5.47728e-07
-1.44338e-28
-4.96836e-24
6.56939e-19
6.96689e-13
5.47622e-07
-1.44463e-28
-4.97659e-24
6.54396e-19
6.95525e-13
5.47172e-07
-1.44472e-28
-4.97732e-24
6.54113e-19
6.95388e-13
5.47115e-07
-1.44494e-28
-4.97967e-24
6.53078e-19
6.94892e-13
5.46916e-07
-1.44496e-28
-4.9799e-24
6.5297e-19
6.94839e-13
5.46895e-07
-1.445e-28
-4.98046e-24
6.52695e-19
6.94706e-13
5.46841e-07
-1.445e-28
-4.98046e-24
6.52695e-19
6.94706e-13
5.46841e-07
-1.44496e-28
-4.9799e-24
6.5297e-19
6.94839e-13
5.46895e-07
-1.44494e-28
-4.97967e-24
6.53078e-19
6.94892e-13
5.46916e-07
-1.44472e-28
-4.97732e-24
6.54113e-19
6.95388e-13
5.47115e-07
-1.44463e-28
-4.97659e-24
6.54396e-19
6.95525e-13
5.47172e-07
-1.44338e-28
-4.96836e-24
6.56939e-19
6.96689e-13
5.47622e-07
-1.44287e-28
-4.96572e-24
6.57532e-19
6.96953e-13
5.47728e-07
-1.43039e-28
-4.91382e-24
6.62733e-19
6.98473e-13
5.48088e-07
-1.4267e-28
-4.89959e-24
6.63599e-19
6.98634e-13
5.48111e-07
-1.30446e-28
-4.46329e-24
6.66664e-19
6.88912e-13
5.41017e-07
-1.29164e-28
-3.46188e-24
1.40961e-18
1.15092e-12
7.84861e-07
-1.41398e-28
-3.90236e-24
1.40495e-18
1.16003e-12
7.90404e-07
-1.41769e-28
-3.91757e-24
1.40357e-18
1.15967e-12
7.90304e-07
-1.43029e-28
-3.97659e-24
1.39454e-18
1.15672e-12
7.89433e-07
-1.4308e-28
-3.98004e-24
1.3935e-18
1.15628e-12
7.89278e-07
-1.43212e-28
-3.99194e-24
1.38895e-18
1.15436e-12
7.88604e-07
-1.43221e-28
-3.99308e-24
1.38844e-18
1.15413e-12
7.88523e-07
-1.43246e-28
-3.99695e-24
1.38657e-18
1.15332e-12
7.88234e-07
-1.43248e-28
-3.99733e-24
1.38638e-18
1.15324e-12
7.88203e-07
-1.43252e-28
-3.9983e-24
1.38588e-18
1.15302e-12
7.88125e-07
-1.43252e-28
-3.99829e-24
1.38588e-18
1.15302e-12
7.88125e-07
-1.43248e-28
-3.99733e-24
1.38638e-18
1.15324e-12
7.88203e-07
-1.43246e-28
-3.99695e-24
1.38657e-18
1.15332e-12
7.88234e-07
-1.43221e-28
-3.99308e-24
1.38844e-18
1.15413e-12
7.88523e-07
-1.43212e-28
-3.99194e-24
1.38895e-18
1.15436e-12
7.88604e-07
-1.4308e-28
-3.98004e-24
1.3935e-18
1.15628e-12
7.89278e-07
-1.43029e-28
-3.97659e-24
1.39454e-18
1.15672e-12
7.89433e-07
-1.41768e-28
-3.91757e-24
1.40357e-18
1.15967e-12
7.90304e-07
-1.41398e-28
-3.90236e-24
1.40495e-18
1.16003e-12
7.90404e-07
-1.29164e-28
-3.46188e-24
1.40961e-18
1.15092e-12
7.84861e-07
-1.26803e-28
-1.81261e-24
2.44807e-18
1.61094e-12
7.82185e-07
-1.39067e-28
-2.26667e-24
2.4384e-18
1.61947e-12
7.87795e-07
-1.39441e-28
-2.28354e-24
2.43627e-18
1.61892e-12
7.87699e-07
-1.40724e-28
-2.35462e-24
2.42175e-18
1.61455e-12
7.86851e-07
-1.40778e-28
-2.35938e-24
2.4201e-18
1.61395e-12
7.86698e-07
-1.4092e-28
-2.37731e-24
2.41274e-18
1.61127e-12
7.86034e-07
-1.40931e-28
-2.37909e-24
2.41193e-18
1.61097e-12
7.85954e-07
-1.4096e-28
-2.38544e-24
2.40891e-18
1.60984e-12
7.85669e-07
-1.40962e-28
-2.38606e-24
2.4086e-18
1.60973e-12
7.85639e-07
-1.40968e-28
-2.3877e-24
2.40779e-18
1.60942e-12
7.85562e-07
-1.40968e-28
-2.3877e-24
2.40779e-18
1.60942e-12
7.85562e-07
-1.40962e-28
-2.38606e-24
2.4086e-18
1.60973e-12
7.85639e-07
-1.4096e-28
-2.38544e-24
2.40891e-18
1.60984e-12
7.85669e-07
-1.40931e-28
-2.37909e-24
2.41193e-18
1.61097e-12
7.85954e-07
-1.4092e-28
-2.37731e-24
2.41274e-18
1.61127e-12
7.86034e-07
-1.40778e-28
-2.35938e-24
2.4201e-18
1.61395e-12
7.86698e-07
-1.40724e-28
-2.35462e-24
2.42175e-18
1.61455e-12
7.86851e-07
-1.39441e-28
-2.28354e-24
2.43627e-18
1.61892e-12
7.87699e-07
-1.39067e-28
-2.26667e-24
2.4384e-18
1.61947e-12
7.87795e-07
-1.26803e-28
-1.81261e-24
2.44807e-18
1.61094e-12
7.82185e-07
-1.22818e-28
6.67694e-25
3.78041e-18
2.06895e-12
7.79573e-07
-1.35146e-28
1.8669e-25
3.76232e-18
2.07693e-12
7.85248e-07
-1.35526e-28
1.67257e-25
3.75921e-18
2.07621e-12
7.85156e-07
-1.36848e-28
7.77596e-26
3.73756e-18
2.07045e-12
7.84329e-07
-1.36906e-28
7.10335e-26
3.73513e-18
2.06969e-12
7.84179e-07
-1.37067e-28
4.40922e-26
3.72419e-18
2.06626e-12
7.83524e-07
-1.37079e-28
4.13486e-26
3.723e-18
2.06588e-12
7.83446e-07
-1.37116e-28
3.13093e-26
3.71849e-18
2.06444e-12
7.83165e-07
-1.37119e-28
3.03157e-26
3.71804e-18
2.06429e-12
7.83135e-07
-1.37127e-28
2.76944e-26
3.71684e-18
2.06391e-12
7.83059e-07
-1.37127e-28
2.76948e-26
3.71684e-18
2.06391e-12
7.83059e-07
-1.37119e-28
3.03158e-26
3.71804e-18
2.06429e-12
7.83135e-07
-1.37116e-28
3.13094e-26
3.71849e-18
2.06444e-12
7.83165e-07
-1.37079e-28
4.13487e-26
3.723e-18
2.06588e-12
7.83446e-07
-1.37067e-28
4.40918e-26
3.72419e-18
2.06626e-12
7.83524e-07
-1.36906e-28
7.10342e-26
3.73513e-18
2.06969e-12
7.84179e-07
-1.36848e-28
7.776e-26
3.73756e-18
2.07045e-12
7.84329e-07
-1.35526e-28
1.67257e-25
3.75921e-18
2.07621e-12
7.85156e-07
-1.35146e-28
1.86691e-25
3.76232e-18
2.07693e-12
7.85248e-07
-1.22818e-28
6.67693e-25
3.78041e-18
2.06895e-12
7.79573e-07
-1.16543e-28
4.16093e-24
5.40487e-18
2.52489e-12
7.77017e-07
-1.28989e-28
3.63565e-24
5.37497e-18
2.53236e-12
7.82756e-07
-1.29378e-28
3.61257e-24
5.37065e-18
2.53145e-12
7.82667e-07
-1.30761e-28
3.49689e-24
5.34028e-18
2.52433e-12
7.81862e-07
-1.30826e-28
3.48742e-24
5.33689e-18
2.52341e-12
7.81714e-07
-1.31016e-28
3.44783e-24
5.32161e-18
2.51925e-12
7.81069e-07
-1.31032e-28
3.44375e-24
5.31995e-18
2.51878e-12
7.80991e-07
-1.3108e-28
3.42853e-24
5.31366e-18
2.51704e-12
7.80714e-07
-1.31085e-28
3.42703e-24
5.31303e-18
2.51686e-12
7.80685e-07
-1.31096e-28
3.42302e-24
5.31134e-18
2.51639e-12
7.8061e-07
-1.31096e-28
3.42302e-24
5.31134e-18
2.51639e-12
7.8061e-07
-1.31085e-28
3.42703e-24
5.31303e-18
2.51686e-12
7.80685e-07
-1.3108e-28
3.42853e-24
5.31366e-18
2.51704e-12
7.80714e-07
-1.31032e-28
3.44375e-24
5.31995e-18
2.51878e-12
7.80991e-07
-1.31016e-28
3.44783e-24
5.32161e-18
2.51925e-12
7.81069e-07
-1.30826e-28
3.48742e-24
5.33689e-18
2.52341e-12
7.81714e-07
-1.30761e-28
3.49689e-24
5.34028e-18
2.52433e-12
7.81862e-07
-1.29378e-28
3.61257e-24
5.37065e-18
2.53145e-12
7.82667e-07
-1.28989e-28
3.63566e-24
5.37497e-18
2.53236e-12
7.82756e-07
-1.16543e-28
4.16093e-24
5.40487e-18
2.52489e-12
7.77017e-07
-1.07194e-28
8.84768e-24
7.31962e-18
2.97868e-12
7.74514e-07
-1.19833e-28
8.25682e-24
7.27452e-18
2.98567e-12
7.80314e-07
-1.20235e-28
8.22882e-24
7.2688e-18
2.98459e-12
7.80229e-07
-1.21711e-28
8.0778e-24
7.22811e-18
2.97612e-12
7.79444e-07
-1.21785e-28
8.06468e-24
7.22362e-18
2.97504e-12
7.79298e-07
-1.22019e-28
8.00818e-24
7.20323e-18
2.97016e-12
7.78662e-07
-1.22039e-28
8.00232e-24
7.20103e-18
2.96961e-12
7.78586e-07
-1.22105e-28
7.98019e-24
7.19265e-18
2.96757e-12
7.78313e-07
-1.22111e-28
7.97801e-24
7.19181e-18
2.96736e-12
7.78284e-07
-1.22127e-28
7.97215e-24
7.18956e-18
2.96681e-12
7.7821e-07
-1.22127e-28
7.97215e-24
7.18956e-18
2.96681e-12
7.7821e-07
-1.22111e-28
7.97801e-24
7.19181e-18
2.96736e-12
7.78284e-07
-1.22105e-28
7.98019e-24
7.19265e-18
2.96757e-12
7.78313e-07
-1.22039e-28
8.00232e-24
7.20103e-18
2.96961e-12
7.78586e-07
-1.22019e-28
8.00818e-24
7.20323e-18
2.97016e-12
7.78662e-07
-1.21785e-28
8.06468e-24
7.22362e-18
2.97504e-12
7.79298e-07
-1.21711e-28
8.0778e-24
7.22811e-18
2.97612e-12
7.79444e-07
-1.20235e-28
8.22882e-24
7.2688e-18
2.98459e-12
7.80229e-07
-1.19833e-28
8.25682e-24
7.27452e-18
2.98567e-12
7.80314e-07
-1.07194e-28
8.84768e-24
7.31962e-18
2.97868e-12
7.74514e-07
-9.38648e-29
1.49072e-23
9.52273e-18
3.43023e-12
7.72059e-07
-1.06799e-28
1.42254e-23
9.45908e-18
3.43679e-12
7.77918e-07
-1.07221e-28
1.4191e-23
9.45174e-18
3.43554e-12
7.77837e-07
-1.0883e-28
1.39942e-23
9.3992e-18
3.42575e-12
7.77073e-07
-1.08917e-28
1.39764e-23
9.39345e-18
3.42452e-12
7.76929e-07
-1.09212e-28
1.38981e-23
9.36721e-18
3.41892e-12
7.76302e-07
-1.09238e-28
1.389e-23
9.3644e-18
3.41829e-12
7.76227e-07
-1.0933e-28
1.38589e-23
9.35361e-18
3.41595e-12
7.75957e-07
-1.09338e-28
1.38559e-23
9.35253e-18
3.41572e-12
7.75928e-07
-1.09361e-28
1.38476e-23
9.34964e-18
3.41509e-12
7.75856e-07
-1.09361e-28
1.38476e-23
9.34964e-18
3.41509e-12
7.75856e-07
-1.09338e-28
1.38559e-23
9.35253e-18
3.41572e-12
7.75928e-07
-1.0933e-28
1.38589e-23
9.35361e-18
3.41595e-12
7.75957e-07
-1.09238e-28
1.389e-23
9.3644e-18
3.41829e-12
7.76227e-07
-1.09212e-28
1.38981e-23
9.36721e-18
3.41892e-12
7.76302e-07
-1.08917e-28
1.39764e-23
9.39345e-18
3.42452e-12
7.76929e-07
-1.0883e-28
1.39942e-23
9.3992e-18
3.42575e-12
7.77073e-07
-1.07221e-28
1.4191e-23
9.45174e-18
3.43554e-12
7.77837e-07
-1.06799e-28
1.42254e-23
9.45908e-18
3.43679e-12
7.77918e-07
-9.38648e-29
1.49072e-23
9.52273e-18
3.43023e-12
7.72059e-07
-7.55335e-29
2.25172e-23
1.20122e-17
3.87948e-12
7.69648e-07
-8.88968e-29
2.17152e-23
1.19267e-17
3.88564e-12
7.75566e-07
-8.93451e-29
2.16728e-23
1.19175e-17
3.88422e-12
7.75489e-07
-9.11361e-29
2.14183e-23
1.18516e-17
3.87314e-12
7.74744e-07
-9.12411e-29
2.13947e-23
1.18444e-17
3.87176e-12
7.74602e-07
-9.16205e-29
2.12891e-23
1.18116e-17
3.86545e-12
7.73983e-07
-9.16557e-29
2.12782e-23
1.18081e-17
3.86475e-12
7.73909e-07
-9.17814e-29
2.1236e-23
1.17946e-17
3.86212e-12
7.73643e-07
-9.17932e-29
2.12319e-23
1.17933e-17
3.86185e-12
7.73615e-07
-9.18249e-29
2.12207e-23
1.17897e-17
3.86115e-12
7.73543e-07
-9.18248e-29
2.12207e-23
1.17897e-17
3.86115e-12
7.73543e-07
-9.17932e-29
2.12319e-23
1.17933e-17
3.86185e-12
7.73615e-07
-9.17814e-29
2.1236e-23
1.17946e-17
3.86212e-12
7.73643e-07
-9.16557e-29
2.12782e-23
1.18081e-17
3.86475e-12
7.73909e-07
-9.16205e-29
2.12891e-23
1.18116e-17
3.86545e-12
7.73983e-07
-9.12411e-29
2.13947e-23
1.18444e-17
3.87176e-12
7.74602e-07
-9.11361e-29
2.14183e-23
1.18516e-17
3.87314e-12
7.74744e-07
-8.9345e-29
2.16728e-23
1.19175e-17
3.88422e-12
7.75489e-07
-8.88967e-29
2.17152e-23
1.19267e-17
3.88564e-12
7.75566e-07
-7.55335e-29
2.25172e-23
1.20122e-17
3.87948e-12
7.69648e-07
-5.10583e-29
3.18541e-23
1.4786e-17
4.32635e-12
7.67279e-07
-6.50184e-29
3.08984e-23
1.46752e-17
4.33213e-12
7.73253e-07
-6.55016e-29
3.08463e-23
1.4664e-17
4.33056e-12
7.7318e-07
-6.75369e-29
3.05211e-23
1.45833e-17
4.31822e-12
7.72454e-07
-6.76658e-29
3.04904e-23
1.45746e-17
4.31668e-12
7.72314e-07
-6.81576e-29
3.03515e-23
1.45345e-17
4.30968e-12
7.71704e-07
-6.82043e-29
3.0337e-23
1.45302e-17
4.30891e-12
7.71631e-07
-6.83756e-29
3.02813e-23
1.45137e-17
4.30599e-12
7.71368e-07
-6.83918e-29
3.02758e-23
1.45121e-17
4.30569e-12
7.7134e-07
-6.84357e-29
3.0261e-23
1.45077e-17
4.30491e-12
7.7127e-07
-6.84356e-29
3.0261e-23
1.45077e-17
4.30491e-12
7.7127e-07
-6.83918e-29
3.02758e-23
1.45121e-17
4.30569e-12
7.7134e-07
-6.83756e-29
3.02813e-23
1.45137e-17
4.30599e-12
7.71368e-07
-6.82043e-29
3.0337e-23
1.45302e-17
4.30891e-12
7.71631e-07
-6.81576e-29
3.03515e-23
1.45345e-17
4.30968e-12
7.71704e-07
-6.76658e-29
3.04904e-23
1.45746e-17
4.31668e-12
7.72314e-07
-6.75369e-29
3.05211e-23
1.45833e-17
4.31822e-12
7.72454e-07
-6.55016e-29
3.08463e-23
1.4664e-17
4.33056e-12
7.7318e-07
-6.50183e-29
3.08984e-23
1.46752e-17
4.33213e-12
7.73253e-07
-5.10583e-29
3.18541e-23
1.4786e-17
4.32635e-12
7.67279e-07
-1.91799e-29
4.30928e-23
1.78419e-17
4.77075e-12
7.64946e-07
-3.39444e-29
4.19459e-23
1.77025e-17
4.7762e-12
7.70976e-07
-3.44731e-29
4.1882e-23
1.76892e-17
4.77447e-12
7.70906e-07
-3.68266e-29
4.14718e-23
1.75921e-17
4.76089e-12
7.70199e-07
-3.69864e-29
4.14326e-23
1.75817e-17
4.7592e-12
7.7006e-07
-3.76241e-29
4.12537e-23
1.75336e-17
4.75152e-12
7.69459e-07
-3.76857e-29
4.12351e-23
1.75285e-17
4.75068e-12
7.69386e-07
-3.79163e-29
4.11631e-23
1.75088e-17
4.74747e-12
7.69128e-07
-3.7938e-29
4.11561e-23
1.75068e-17
4.74715e-12
7.691e-07
-3.79977e-29
4.11369e-23
1.75015e-17
4.74629e-12
7.6903e-07
-3.79977e-29
4.11369e-23
1.75015e-17
4.74629e-12
7.6903e-07
-3.7938e-29
4.11561e-23
1.75068e-17
4.74715e-12
7.691e-07
-3.79162e-29
4.11631e-23
1.75088e-17
4.74747e-12
7.69128e-07
-3.76857e-29
4.12351e-23
1.75285e-17
4.75068e-12
7.69386e-07
-3.76241e-29
4.12537e-23
1.75336e-17
4.75152e-12
7.69459e-07
-3.69864e-29
4.14326e-23
1.75817e-17
4.7592e-12
7.7006e-07
-3.68265e-29
4.14718e-23
1.75921e-17
4.76089e-12
7.70199e-07
-3.4473e-29
4.1882e-23
1.76892e-17
4.77447e-12
7.70906e-07
-3.39443e-29
4.19459e-23
1.77025e-17
4.7762e-12
7.70976e-07
-1.91799e-29
4.30928e-23
1.78419e-17
4.77075e-12
7.64946e-07
2.14779e-29
5.64064e-23
2.11777e-17
5.21259e-12
7.62641e-07
5.65769e-30
5.50268e-23
2.10064e-17
5.21774e-12
7.68726e-07
5.07138e-30
5.4949e-23
2.09907e-17
5.21587e-12
7.68659e-07
2.31217e-30
5.44383e-23
2.0876e-17
5.20107e-12
7.67971e-07
2.11313e-30
5.43891e-23
2.08637e-17
5.19925e-12
7.67834e-07
1.28988e-30
5.41629e-23
2.0807e-17
5.19089e-12
7.6724e-07
1.20944e-30
5.41396e-23
2.08009e-17
5.18998e-12
7.67169e-07
9.03636e-31
5.40483e-23
2.07776e-17
5.18649e-12
7.66914e-07
8.74703e-31
5.40394e-23
2.07753e-17
5.18615e-12
7.66887e-07
7.9494e-31
5.40151e-23
2.07691e-17
5.18521e-12
7.66818e-07
7.94952e-31
5.40151e-23
2.07691e-17
5.18521e-12
7.66818e-07
8.74707e-31
5.40394e-23
2.07753e-17
5.18615e-12
7.66887e-07
9.03641e-31
5.40483e-23
2.07776e-17
5.18649e-12
7.66914e-07
1.20945e-30
5.41396e-23
2.08009e-17
5.18998e-12
7.67169e-07
1.28987e-30
5.41629e-23
2.0807e-17
5.19089e-12
7.6724e-07
2.11316e-30
5.43891e-23
2.08637e-17
5.19925e-12
7.67834e-07
2.31221e-30
5.44383e-23
2.0876e-17
5.20107e-12
7.67971e-07
5.07144e-30
5.4949e-23
2.09907e-17
5.21587e-12
7.68659e-07
5.65777e-30
5.50268e-23
2.10064e-17
5.21774e-12
7.68726e-07
2.14779e-29
5.64064e-23
2.11777e-17
5.21259e-12
7.62641e-07
7.24084e-29
7.19666e-23
2.47911e-17
5.65177e-12
7.60336e-07
5.52327e-29
7.03085e-23
2.45846e-17
5.65666e-12
7.66474e-07
5.45744e-29
7.02145e-23
2.45663e-17
5.65464e-12
7.66411e-07
5.13076e-29
6.95867e-23
2.44326e-17
5.63867e-12
7.65741e-07
5.10598e-29
6.95259e-23
2.44184e-17
5.6367e-12
7.65606e-07
5.00048e-29
6.92448e-23
2.43522e-17
5.62769e-12
7.65021e-07
4.99009e-29
6.92158e-23
2.43452e-17
5.6267e-12
7.6495e-07
4.95011e-29
6.91021e-23
2.43181e-17
5.62295e-12
7.64698e-07
4.94633e-29
6.90911e-23
2.43154e-17
5.62257e-12
7.64671e-07
4.93585e-29
6.90608e-23
2.43082e-17
5.62157e-12
7.64604e-07
4.93585e-29
6.90608e-23
2.43082e-17
5.62157e-12
7.64604e-07
4.94633e-29
6.90911e-23
2.43154e-17
5.62257e-12
7.64671e-07
4.95011e-29
6.91021e-23
2.43181e-17
5.62295e-12
7.64698e-07
4.99009e-29
6.92158e-23
2.43452e-17
5.6267e-12
7.6495e-07
5.00048e-29
6.92448e-23
2.43522e-17
5.62769e-12
7.65021e-07
5.10599e-29
6.95259e-23
2.44184e-17
5.6367e-12
7.65606e-07
5.13076e-29
6.95867e-23
2.44326e-17
5.63867e-12
7.65741e-07
5.45745e-29
7.02145e-23
2.45663e-17
5.65464e-12
7.66411e-07
5.52328e-29
7.03085e-23
2.45846e-17
5.65666e-12
7.66474e-07
7.24084e-29
7.19666e-23
2.47911e-17
5.65177e-12
7.60336e-07
-3.78685e-06
-1.0335e-06
-3.84364e-08
-2.87712e-10
-3.953e-13
3.33092e-16
4.50684e-16
4.51556e-16
4.51746e-16
4.51776e-16
4.51807e-16
4.51977e-16
4.52891e-16
4.54053e-16
4.63914e-16
4.72652e-16
5.65919e-16
6.17806e-16
1.94597e-15
2.2787e-15
-3.28506e-06
-1.02923e-06
-4.05049e-08
-3.16268e-10
-4.52719e-13
3.11794e-16
4.50655e-16
4.51546e-16
4.5174e-16
4.51769e-16
4.51777e-16
4.51916e-16
4.52848e-16
4.54029e-16
4.64048e-16
4.72884e-16
5.67302e-16
6.1952e-16
1.96236e-15
2.29866e-15
-3.27907e-06
-1.02933e-06
-4.05214e-08
-3.16487e-10
-4.53196e-13
3.11578e-16
4.50654e-16
4.51546e-16
4.5174e-16
4.51769e-16
4.51778e-16
4.5192e-16
4.52852e-16
4.54034e-16
4.64056e-16
4.72894e-16
5.67329e-16
6.1955e-16
1.96252e-15
2.29882e-15
-3.25674e-06
-1.02887e-06
-4.04832e-08
-3.16094e-10
-4.52666e-13
3.11581e-16
4.50654e-16
4.51547e-16
4.51741e-16
4.5177e-16
4.51782e-16
4.51937e-16
4.52871e-16
4.54054e-16
4.64086e-16
4.7293e-16
5.67417e-16
6.19644e-16
1.963e-15
2.29925e-15
-3.2579e-06
-1.02892e-06
-4.04774e-08
-3.16014e-10
-4.52505e-13
3.1163e-16
4.50654e-16
4.51547e-16
4.51741e-16
4.5177e-16
4.51782e-16
4.51937e-16
4.52871e-16
4.54054e-16
4.64087e-16
4.72931e-16
5.67419e-16
6.19647e-16
1.96301e-15
2.29926e-15
-3.26195e-06
-1.02885e-06
-4.04399e-08
-3.15598e-10
-4.51749e-13
3.11858e-16
4.50654e-16
4.51547e-16
4.51741e-16
4.5177e-16
4.51783e-16
4.51938e-16
4.52872e-16
4.54055e-16
4.64089e-16
4.72932e-16
5.67423e-16
6.19651e-16
1.96303e-15
2.29927e-15
-3.26282e-06
-1.02888e-06
-4.04371e-08
-3.1556e-10
-4.51675e-13
3.11882e-16
4.50654e-16
4.51547e-16
4.51741e-16
4.5177e-16
4.51783e-16
4.51938e-16
4.52872e-16
4.54055e-16
4.64089e-16
4.72933e-16
5.67424e-16
6.19651e-16
1.96303e-15
2.29927e-15
-3.26493e-06
-1.02886e-06
-4.04236e-08
-3.15416e-10
-4.51419e-13
3.11959e-16
4.50654e-16
4.51547e-16
4.51741e-16
4.5177e-16
4.51783e-16
4.51938e-16
4.52872e-16
4.54055e-16
4.64089e-16
4.72933e-16
5.67424e-16
6.19652e-16
1.96303e-15
2.29927e-15
-3.26528e-06
-1.02887e-06
-4.04227e-08
-3.15404e-10
-4.51397e-13
3.11966e-16
4.50654e-16
4.51547e-16
4.51741e-16
4.5177e-16
4.51783e-16
4.51938e-16
4.52872e-16
4.54055e-16
4.64089e-16
4.72933e-16
5.67424e-16
6.19652e-16
1.96303e-15
2.29927e-15
-3.26583e-06
-1.02887e-06
-4.04195e-08
-3.15371e-10
-4.5134e-13
3.11982e-16
4.50654e-16
4.51547e-16
4.51741e-16
4.5177e-16
4.51783e-16
4.51938e-16
4.52872e-16
4.54055e-16
4.64089e-16
4.72933e-16
5.67424e-16
6.19651e-16
1.96303e-15
2.29927e-15
-3.26583e-06
-1.02887e-06
-4.04195e-08
-3.15371e-10
-4.5134e-13
3.11982e-16
4.50654e-16
4.51547e-16
4.51741e-16
4.5177e-16
4.51783e-16
4.51938e-16
4.52872e-16
4.54055e-16
4.64089e-16
4.72933e-16
5.67424e-16
6.19651e-16
1.96303e-15
2.29927e-15
-3.26528e-06
-1.02887e-06
-4.04227e-08
-3.15404e-10
-4.51397e-13
3.11966e-16
4.50654e-16
4.51547e-16
4.51741e-16
4.5177e-16
4.51783e-16
4.51938e-16
4.52872e-16
4.54055e-16
4.64089e-16
4.72933e-16
5.67424e-16
6.19652e-16
1.96303e-15
2.29927e-15
-3.26493e-06
-1.02886e-06
-4.04236e-08
-3.15416e-10
-4.51419e-13
3.11959e-16
4.50654e-16
4.51547e-16
4.51741e-16
4.5177e-16
4.51783e-16
4.51938e-16
4.52872e-16
4.54055e-16
4.64089e-16
4.72933e-16
5.67424e-16
6.19652e-16
1.96303e-15
2.29927e-15
-3.26282e-06
-1.02888e-06
-4.04371e-08
-3.1556e-10
-4.51675e-13
3.11882e-16
4.50654e-16
4.51547e-16
4.51741e-16
4.5177e-16
4.51783e-16
4.51938e-16
4.52872e-16
4.54055e-16
4.64089e-16
4.72933e-16
5.67424e-16
6.19651e-16
1.96303e-15
2.29927e-15
-3.26195e-06
-1.02885e-06
-4.04399e-08
-3.15598e-10
-4.51749e-13
3.11858e-16
4.50654e-16
4.51547e-16
4.51741e-16
4.5177e-16
4.51783e-16
4.51938e-16
4.52872e-16
4.54055e-16
4.64089e-16
4.72932e-16
5.67423e-16
6.19651e-16
1.96303e-15
2.29927e-15
-3.2579e-06
-1.02892e-06
-4.04774e-08
-3.16014e-10
-4.52505e-13
3.1163e-16
4.50654e-16
4.51547e-16
4.51741e-16
4.5177e-16
4.51782e-16
4.51937e-16
4.52871e-16
4.54054e-16
4.64087e-16
4.72931e-16
5.67419e-16
6.19647e-16
1.96301e-15
2.29926e-15
-3.25674e-06
-1.02887e-06
-4.04832e-08
-3.16094e-10
-4.52666e-13
3.11581e-16
4.50654e-16
4.51547e-16
4.51741e-16
4.5177e-16
4.51782e-16
4.51937e-16
4.52871e-16
4.54054e-16
4.64086e-16
4.7293e-16
5.67417e-16
6.19644e-16
1.963e-15
2.29925e-15
-3.27907e-06
-1.02933e-06
-4.05214e-08
-3.16487e-10
-4.53196e-13
3.11578e-16
4.50654e-16
4.51546e-16
4.5174e-16
4.51769e-16
4.51778e-16
4.5192e-16
4.52852e-16
4.54034e-16
4.64056e-16
4.72894e-16
5.67329e-16
6.1955e-16
1.96252e-15
2.29882e-15
-3.28506e-06
-1.02923e-06
-4.05049e-08
-3.16268e-10
-4.52719e-13
3.11794e-16
4.50655e-16
4.51546e-16
4.5174e-16
4.51769e-16
4.51777e-16
4.51916e-16
4.52848e-16
4.54029e-16
4.64048e-16
4.72884e-16
5.67302e-16
6.1952e-16
1.96236e-15
2.29866e-15
-3.78685e-06
-1.0335e-06
-3.84364e-08