/*--------------------------------*- C++ -*----------------------------------*\
  =========                 |
  \\      /  F ield         | OpenFOAM: The Open Source CFD Toolbox
   \\    /   O peration     | Website:  https://openfoam.org
    \\  /    A nd           | Version:  8
     \\/     M anipulation  |
\*---------------------------------------------------------------------------*/
FoamFile
{
    version     2.0;
    format      ascii;
    class       volScalarField;
    location    "1.4";
    object      H2;
}
// * * * * * * * * * * * * * * * * * * * * * * * * * * * * * * * * * * * * * //

dimensions      [0 1 -1 0 0 0 0];

internalField   nonuniform List<scalar> 
180000
(
-2.9788e-31
-2.41412e-26
-1.77581e-21
-1.16114e-16
-6.65028e-12
-3.41001e-31
-2.74664e-26
-2.00606e-21
-1.30057e-16
-7.37008e-12
-3.42235e-31
-2.75615e-26
-2.01264e-21
-1.30453e-16
-7.39037e-12
-3.46382e-31
-2.78853e-26
-2.03531e-21
-1.3184e-16
-7.46242e-12
-3.46533e-31
-2.78974e-26
-2.03617e-21
-1.31894e-16
-7.46526e-12
-3.46853e-31
-2.79237e-26
-2.03811e-21
-1.32019e-16
-7.47201e-12
-3.46863e-31
-2.79247e-26
-2.0382e-21
-1.32025e-16
-7.47242e-12
-3.46887e-31
-2.79271e-26
-2.03841e-21
-1.32041e-16
-7.47343e-12
-3.46884e-31
-2.7927e-26
-2.03841e-21
-1.32042e-16
-7.47349e-12
-3.46884e-31
-2.79271e-26
-2.03842e-21
-1.32044e-16
-7.47364e-12
-3.46884e-31
-2.79271e-26
-2.03842e-21
-1.32044e-16
-7.47364e-12
-3.46884e-31
-2.7927e-26
-2.03841e-21
-1.32042e-16
-7.47349e-12
-3.46887e-31
-2.79271e-26
-2.03841e-21
-1.32041e-16
-7.47343e-12
-3.46863e-31
-2.79247e-26
-2.0382e-21
-1.32025e-16
-7.47242e-12
-3.46853e-31
-2.79237e-26
-2.03811e-21
-1.32019e-16
-7.47201e-12
-3.46533e-31
-2.78974e-26
-2.03617e-21
-1.31894e-16
-7.46526e-12
-3.46382e-31
-2.78853e-26
-2.03531e-21
-1.3184e-16
-7.46242e-12
-3.42235e-31
-2.75615e-26
-2.01264e-21
-1.30453e-16
-7.39037e-12
-3.41001e-31
-2.74664e-26
-2.00606e-21
-1.30057e-16
-7.37008e-12
-2.9788e-31
-2.41412e-26
-1.77581e-21
-1.16114e-16
-6.65028e-12
-2.97842e-31
-2.41412e-26
-1.77962e-21
-1.22035e-16
-1.62516e-11
-3.40958e-31
-2.74662e-26
-2.00997e-21
-1.36218e-16
-1.74416e-11
-3.42192e-31
-2.75612e-26
-2.01654e-21
-1.36619e-16
-1.74724e-11
-3.46338e-31
-2.78849e-26
-2.03921e-21
-1.38015e-16
-1.75767e-11
-3.46488e-31
-2.7897e-26
-2.04007e-21
-1.38068e-16
-1.75802e-11
-3.46809e-31
-2.79233e-26
-2.042e-21
-1.38188e-16
-1.75849e-11
-3.46819e-31
-2.79243e-26
-2.04209e-21
-1.38195e-16
-1.75852e-11
-3.46843e-31
-2.79267e-26
-2.0423e-21
-1.38209e-16
-1.75848e-11
-3.4684e-31
-2.79266e-26
-2.04229e-21
-1.38209e-16
-1.75848e-11
-3.46839e-31
-2.79267e-26
-2.04231e-21
-1.38211e-16
-1.75847e-11
-3.46839e-31
-2.79267e-26
-2.04231e-21
-1.38211e-16
-1.75847e-11
-3.4684e-31
-2.79266e-26
-2.04229e-21
-1.38209e-16
-1.75848e-11
-3.46843e-31
-2.79267e-26
-2.0423e-21
-1.38209e-16
-1.75848e-11
-3.46819e-31
-2.79243e-26
-2.04209e-21
-1.38195e-16
-1.75852e-11
-3.46809e-31
-2.79233e-26
-2.042e-21
-1.38188e-16
-1.75849e-11
-3.46488e-31
-2.7897e-26
-2.04007e-21
-1.38068e-16
-1.75802e-11
-3.46338e-31
-2.78849e-26
-2.03921e-21
-1.38015e-16
-1.75767e-11
-3.42192e-31
-2.75612e-26
-2.01654e-21
-1.36619e-16
-1.74724e-11
-3.40958e-31
-2.74662e-26
-2.00997e-21
-1.36218e-16
-1.74416e-11
-2.97842e-31
-2.41412e-26
-1.77962e-21
-1.22035e-16
-1.62516e-11
-2.97841e-31
-2.41814e-26
-1.83967e-21
-2.02676e-16
-1.36563e-10
-3.40951e-31
-2.75052e-26
-2.06953e-21
-2.16868e-16
-1.38287e-10
-3.42185e-31
-2.76003e-26
-2.07608e-21
-2.17257e-16
-1.3832e-10
-3.4633e-31
-2.79237e-26
-2.0985e-21
-2.18502e-16
-1.38371e-10
-3.46481e-31
-2.79357e-26
-2.09934e-21
-2.18544e-16
-1.38369e-10
-3.46802e-31
-2.79619e-26
-2.10117e-21
-2.18585e-16
-1.38318e-10
-3.46812e-31
-2.79629e-26
-2.10125e-21
-2.18587e-16
-1.38316e-10
-3.46836e-31
-2.79653e-26
-2.10143e-21
-2.18575e-16
-1.38297e-10
-3.46833e-31
-2.79652e-26
-2.10142e-21
-2.18574e-16
-1.38297e-10
-3.46832e-31
-2.79653e-26
-2.10143e-21
-2.1857e-16
-1.38292e-10
-3.46832e-31
-2.79653e-26
-2.10143e-21
-2.1857e-16
-1.38292e-10
-3.46833e-31
-2.79652e-26
-2.10142e-21
-2.18574e-16
-1.38297e-10
-3.46836e-31
-2.79653e-26
-2.10143e-21
-2.18575e-16
-1.38297e-10
-3.46812e-31
-2.79629e-26
-2.10125e-21
-2.18587e-16
-1.38316e-10
-3.46802e-31
-2.79619e-26
-2.10117e-21
-2.18585e-16
-1.38318e-10
-3.46481e-31
-2.79357e-26
-2.09934e-21
-2.18544e-16
-1.38369e-10
-3.4633e-31
-2.79237e-26
-2.0985e-21
-2.18502e-16
-1.38371e-10
-3.42185e-31
-2.76003e-26
-2.07608e-21
-2.17257e-16
-1.3832e-10
-3.40951e-31
-2.75052e-26
-2.06953e-21
-2.16868e-16
-1.38287e-10
-2.97841e-31
-2.41814e-26
-1.83967e-21
-2.02676e-16
-1.36563e-10
-2.98028e-31
-2.44412e-26
-2.16442e-21
-5.7632e-16
-6.00337e-10
-3.41118e-31
-2.77461e-26
-2.37061e-21
-5.6039e-16
-5.56018e-10
-3.42352e-31
-2.78407e-26
-2.37659e-21
-5.60111e-16
-5.55076e-10
-3.46494e-31
-2.81614e-26
-2.39609e-21
-5.58311e-16
-5.51104e-10
-3.46645e-31
-2.81733e-26
-2.39681e-21
-5.58244e-16
-5.5099e-10
-3.46964e-31
-2.81988e-26
-2.398e-21
-5.5779e-16
-5.50495e-10
-3.46974e-31
-2.81998e-26
-2.39805e-21
-5.57773e-16
-5.50488e-10
-3.46998e-31
-2.8202e-26
-2.39805e-21
-5.57639e-16
-5.50387e-10
-3.46995e-31
-2.82019e-26
-2.39804e-21
-5.57636e-16
-5.50391e-10
-3.46994e-31
-2.82019e-26
-2.39801e-21
-5.57607e-16
-5.50372e-10
-3.46994e-31
-2.82019e-26
-2.39801e-21
-5.57607e-16
-5.50372e-10
-3.46995e-31
-2.82019e-26
-2.39804e-21
-5.57636e-16
-5.50391e-10
-3.46998e-31
-2.8202e-26
-2.39805e-21
-5.57639e-16
-5.50387e-10
-3.46974e-31
-2.81998e-26
-2.39805e-21
-5.57773e-16
-5.50488e-10
-3.46964e-31
-2.81988e-26
-2.398e-21
-5.5779e-16
-5.50495e-10
-3.46645e-31
-2.81733e-26
-2.39681e-21
-5.58244e-16
-5.5099e-10
-3.46494e-31
-2.81614e-26
-2.39609e-21
-5.58311e-16
-5.51104e-10
-3.42352e-31
-2.78407e-26
-2.37659e-21
-5.60111e-16
-5.55076e-10
-3.41118e-31
-2.77461e-26
-2.37061e-21
-5.6039e-16
-5.56018e-10
-2.98028e-31
-2.44412e-26
-2.16442e-21
-5.7632e-16
-6.00337e-10
-2.9868e-31
-2.50641e-26
-2.66933e-21
-7.85445e-16
-2.73379e-10
-3.4164e-31
-2.82193e-26
-2.68241e-21
-5.23671e-16
1.2797e-10
-3.42872e-31
-2.83108e-26
-2.68453e-21
-5.18607e-16
1.35816e-10
-3.47001e-31
-2.86176e-26
-2.68793e-21
-4.97617e-16
1.67352e-10
-3.47151e-31
-2.86291e-26
-2.68819e-21
-4.97096e-16
1.68093e-10
-3.47468e-31
-2.86527e-26
-2.68782e-21
-4.95349e-16
1.70196e-10
-3.47478e-31
-2.86536e-26
-2.68784e-21
-4.95351e-16
1.70161e-10
-3.47501e-31
-2.86553e-26
-2.6876e-21
-4.9514e-16
1.70282e-10
-3.47498e-31
-2.86552e-26
-2.6876e-21
-4.95169e-16
1.70228e-10
-3.47497e-31
-2.86551e-26
-2.68754e-21
-4.95144e-16
1.70219e-10
-3.47497e-31
-2.86551e-26
-2.68754e-21
-4.95144e-16
1.70219e-10
-3.47498e-31
-2.86552e-26
-2.6876e-21
-4.95169e-16
1.70228e-10
-3.47501e-31
-2.86553e-26
-2.6876e-21
-4.9514e-16
1.70282e-10
-3.47478e-31
-2.86536e-26
-2.68784e-21
-4.95351e-16
1.70161e-10
-3.47468e-31
-2.86527e-26
-2.68782e-21
-4.95349e-16
1.70196e-10
-3.47151e-31
-2.86291e-26
-2.68819e-21
-4.97096e-16
1.68093e-10
-3.47001e-31
-2.86176e-26
-2.68793e-21
-4.97617e-16
1.67352e-10
-3.42872e-31
-2.83108e-26
-2.68453e-21
-5.18607e-16
1.35816e-10
-3.41641e-31
-2.82193e-26
-2.68241e-21
-5.23671e-16
1.27971e-10
-2.9868e-31
-2.50641e-26
-2.66933e-21
-7.85445e-16
-2.73379e-10
-2.98607e-31
-2.38865e-26
1.84041e-22
4.23082e-15
8.36202e-09
-3.40976e-31
-2.63695e-26
9.90055e-22
5.46064e-15
1.00168e-08
-3.42197e-31
-2.64492e-26
1.00224e-21
5.48297e-15
1.00474e-08
-3.46285e-31
-2.67136e-26
1.04908e-21
5.56758e-15
1.01684e-08
-3.46435e-31
-2.67245e-26
1.04926e-21
5.56894e-15
1.01708e-08
-3.4675e-31
-2.67486e-26
1.04807e-21
5.5703e-15
1.01753e-08
-3.4676e-31
-2.67499e-26
1.04754e-21
5.56983e-15
1.01749e-08
-3.46784e-31
-2.67528e-26
1.04609e-21
5.5685e-15
1.0174e-08
-3.46781e-31
-2.67528e-26
1.04584e-21
5.56822e-15
1.01737e-08
-3.4678e-31
-2.67531e-26
1.04545e-21
5.5678e-15
1.01733e-08
-3.4678e-31
-2.67531e-26
1.04545e-21
5.5678e-15
1.01733e-08
-3.46781e-31
-2.67528e-26
1.04584e-21
5.56822e-15
1.01737e-08
-3.46784e-31
-2.67528e-26
1.04609e-21
5.5685e-15
1.0174e-08
-3.4676e-31
-2.67499e-26
1.04754e-21
5.56983e-15
1.01749e-08
-3.4675e-31
-2.67486e-26
1.04807e-21
5.5703e-15
1.01753e-08
-3.46435e-31
-2.67245e-26
1.04926e-21
5.56894e-15
1.01708e-08
-3.46285e-31
-2.67136e-26
1.04908e-21
5.56758e-15
1.01684e-08
-3.42197e-31
-2.64492e-26
1.00224e-21
5.48297e-15
1.00474e-08
-3.40976e-31
-2.63695e-26
9.90055e-22
5.46064e-15
1.00168e-08
-2.98607e-31
-2.38865e-26
1.8404e-22
4.23082e-15
8.36202e-09
-2.88111e-31
-8.69237e-27
2.15823e-20
3.13337e-14
4.43769e-08
-3.28596e-31
-9.16436e-27
2.46269e-20
3.49268e-14
4.86109e-08
-3.29791e-31
-9.21439e-27
2.46731e-20
3.49878e-14
4.86854e-08
-3.33817e-31
-9.41082e-27
2.48079e-20
3.51971e-14
4.89726e-08
-3.33969e-31
-9.42512e-27
2.48052e-20
3.5198e-14
4.8977e-08
-3.34311e-31
-9.47693e-27
2.47776e-20
3.51845e-14
4.89784e-08
-3.34324e-31
-9.48132e-27
2.47739e-20
3.51818e-14
4.89767e-08
-3.34359e-31
-9.49629e-27
2.47604e-20
3.5172e-14
4.89708e-08
-3.34357e-31
-9.49753e-27
2.47589e-20
3.51707e-14
4.89698e-08
-3.34359e-31
-9.50075e-27
2.47556e-20
3.51682e-14
4.8968e-08
-3.34359e-31
-9.50075e-27
2.47556e-20
3.51682e-14
4.8968e-08
-3.34357e-31
-9.49753e-27
2.47589e-20
3.51707e-14
4.89698e-08
-3.34359e-31
-9.49629e-27
2.47604e-20
3.5172e-14
4.89708e-08
-3.34324e-31
-9.48132e-27
2.47739e-20
3.51818e-14
4.89767e-08
-3.34311e-31
-9.47693e-27
2.47776e-20
3.51845e-14
4.89784e-08
-3.33969e-31
-9.42512e-27
2.48052e-20
3.5198e-14
4.8977e-08
-3.33817e-31
-9.41081e-27
2.48079e-20
3.51971e-14
4.89726e-08
-3.2979e-31
-9.21439e-27
2.46731e-20
3.49878e-14
4.86854e-08
-3.28596e-31
-9.16436e-27
2.46269e-20
3.49268e-14
4.86109e-08
-2.88111e-31
-8.69237e-27
2.15823e-20
3.13337e-14
4.43769e-08
-2.30696e-31
5.86195e-26
1.00342e-19
1.14458e-13
1.35074e-07
-2.66787e-31
6.24713e-26
1.07681e-19
1.21959e-13
1.42601e-07
-2.67938e-31
6.24688e-26
1.07779e-19
1.22076e-13
1.42726e-07
-2.72039e-31
6.2244e-26
1.07945e-19
1.22411e-13
1.43178e-07
-2.72217e-31
6.22083e-26
1.07926e-19
1.22405e-13
1.43181e-07
-2.72715e-31
6.20188e-26
1.07785e-19
1.2233e-13
1.43156e-07
-2.72743e-31
6.20015e-26
1.07771e-19
1.2232e-13
1.43151e-07
-2.72836e-31
6.19346e-26
1.07713e-19
1.22284e-13
1.43132e-07
-2.72839e-31
6.19288e-26
1.07708e-19
1.2228e-13
1.43129e-07
-2.72855e-31
6.19133e-26
1.07694e-19
1.22271e-13
1.43124e-07
-2.72855e-31
6.19133e-26
1.07694e-19
1.22271e-13
1.43124e-07
-2.72839e-31
6.19288e-26
1.07708e-19
1.2228e-13
1.43129e-07
-2.72836e-31
6.19346e-26
1.07713e-19
1.22284e-13
1.43132e-07
-2.72743e-31
6.20015e-26
1.07771e-19
1.2232e-13
1.43151e-07
-2.72715e-31
6.20188e-26
1.07785e-19
1.2233e-13
1.43156e-07
-2.72217e-31
6.22083e-26
1.07926e-19
1.22405e-13
1.43181e-07
-2.72039e-31
6.2244e-26
1.07945e-19
1.22411e-13
1.43178e-07
-2.67938e-31
6.24688e-26
1.07779e-19
1.22076e-13
1.42726e-07
-2.66787e-31
6.24713e-26
1.07681e-19
1.21959e-13
1.42601e-07
-2.30696e-31
5.86195e-26
1.00342e-19
1.14458e-13
1.35074e-07
-2.8564e-32
2.64607e-25
3.08721e-19
3.01273e-13
3.02e-07
-5.71342e-32
2.75231e-25
3.21916e-19
3.13145e-13
3.11748e-07
-5.82718e-32
2.75259e-25
3.22052e-19
3.13306e-13
3.11895e-07
-6.31874e-32
2.74481e-25
3.21887e-19
3.13576e-13
3.12335e-07
-6.34645e-32
2.7437e-25
3.21815e-19
3.13545e-13
3.12327e-07
-6.45377e-32
2.73737e-25
3.21352e-19
3.13306e-13
3.12229e-07
-6.46139e-32
2.73682e-25
3.21309e-19
3.13282e-13
3.12217e-07
-6.49079e-32
2.73458e-25
3.21135e-19
3.13184e-13
3.12169e-07
-6.49276e-32
2.73439e-25
3.2112e-19
3.13175e-13
3.12165e-07
-6.49899e-32
2.73387e-25
3.21079e-19
3.13152e-13
3.12152e-07
-6.49899e-32
2.73387e-25
3.21079e-19
3.13152e-13
3.12152e-07
-6.49276e-32
2.73439e-25
3.2112e-19
3.13175e-13
3.12165e-07
-6.49079e-32
2.73458e-25
3.21135e-19
3.13184e-13
3.12169e-07
-6.46139e-32
2.73682e-25
3.21309e-19
3.13282e-13
3.12217e-07
-6.45377e-32
2.73737e-25
3.21352e-19
3.13306e-13
3.12229e-07
-6.34644e-32
2.7437e-25
3.21815e-19
3.13545e-13
3.12327e-07
-6.31874e-32
2.74481e-25
3.21887e-19
3.13576e-13
3.12335e-07
-5.82718e-32
2.75259e-25
3.22052e-19
3.13306e-13
3.11895e-07
-5.71341e-32
2.75231e-25
3.21916e-19
3.13145e-13
3.11748e-07
-2.8564e-32
2.64607e-25
3.08721e-19
3.01273e-13
3.02e-07
5.28961e-31
7.67768e-25
7.53515e-19
6.40658e-13
5.46453e-07
5.08742e-31
7.85349e-25
7.71694e-19
6.55166e-13
5.5562e-07
5.0743e-31
7.85281e-25
7.71777e-19
6.55312e-13
5.55729e-07
4.99404e-31
7.82456e-25
7.70334e-19
6.55033e-13
5.55816e-07
4.98839e-31
7.82148e-25
7.70133e-19
6.54943e-13
5.55781e-07
4.96145e-31
7.80393e-25
7.68943e-19
6.54372e-13
5.5554e-07
4.95937e-31
7.80246e-25
7.6884e-19
6.5432e-13
5.55517e-07
4.95096e-31
7.79639e-25
7.68416e-19
6.54106e-13
5.55421e-07
4.95032e-31
7.7959e-25
7.68381e-19
6.54087e-13
5.55412e-07
4.94845e-31
7.7945e-25
7.68282e-19
6.54037e-13
5.5539e-07
4.94845e-31
7.7945e-25
7.68282e-19
6.54037e-13
5.5539e-07
4.95032e-31
7.7959e-25
7.68381e-19
6.54087e-13
5.55412e-07
4.95096e-31
7.79639e-25
7.68416e-19
6.54106e-13
5.55421e-07
4.95937e-31
7.80246e-25
7.6884e-19
6.5432e-13
5.55517e-07
4.96145e-31
7.80393e-25
7.68943e-19
6.54372e-13
5.5554e-07
4.98839e-31
7.82148e-25
7.70133e-19
6.54943e-13
5.55781e-07
4.99404e-31
7.82456e-25
7.70334e-19
6.55033e-13
5.55816e-07
5.0743e-31
7.85281e-25
7.71777e-19
6.55312e-13
5.55729e-07
5.08742e-31
7.85349e-25
7.71694e-19
6.55166e-13
5.5562e-07
5.28961e-31
7.67768e-25
7.53515e-19
6.40658e-13
5.46453e-07
1.76385e-30
1.72416e-24
1.4316e-18
9.76604e-13
5.42624e-07
1.74765e-30
1.74669e-24
1.45398e-18
9.93822e-13
5.51862e-07
1.74571e-30
1.7463e-24
1.45393e-18
9.93959e-13
5.51974e-07
1.72982e-30
1.739e-24
1.4503e-18
9.93158e-13
5.52085e-07
1.7286e-30
1.73831e-24
1.4499e-18
9.93014e-13
5.52052e-07
1.72228e-30
1.7344e-24
1.44759e-18
9.92119e-13
5.51819e-07
1.72179e-30
1.73408e-24
1.44739e-18
9.92041e-13
5.51797e-07
1.71974e-30
1.73275e-24
1.44659e-18
9.91714e-13
5.51704e-07
1.71959e-30
1.73264e-24
1.44653e-18
9.91686e-13
5.51696e-07
1.71912e-30
1.73234e-24
1.44634e-18
9.9161e-13
5.51674e-07
1.71912e-30
1.73234e-24
1.44634e-18
9.9161e-13
5.51674e-07
1.71959e-30
1.73264e-24
1.44653e-18
9.91686e-13
5.51696e-07
1.71974e-30
1.73275e-24
1.44659e-18
9.91714e-13
5.51704e-07
1.72179e-30
1.73408e-24
1.44739e-18
9.92041e-13
5.51797e-07
1.72228e-30
1.7344e-24
1.44759e-18
9.92119e-13
5.51819e-07
1.7286e-30
1.73831e-24
1.4499e-18
9.93014e-13
5.52052e-07
1.72982e-30
1.739e-24
1.4503e-18
9.93158e-13
5.52085e-07
1.74571e-30
1.7463e-24
1.45393e-18
9.93959e-13
5.51974e-07
1.74765e-30
1.74669e-24
1.45398e-18
9.93822e-13
5.51862e-07
1.76385e-30
1.72416e-24
1.4316e-18
9.76604e-13
5.42624e-07
4.10776e-30
3.28731e-24
2.33977e-18
1.30909e-12
5.38862e-07
4.08326e-30
3.31066e-24
2.36565e-18
1.32909e-12
5.4817e-07
4.07989e-30
3.30964e-24
2.36539e-18
1.32922e-12
5.48286e-07
4.04803e-30
3.29457e-24
2.3587e-18
1.32793e-12
5.48419e-07
4.04556e-30
3.29324e-24
2.35804e-18
1.32773e-12
5.48387e-07
4.03234e-30
3.28579e-24
2.35423e-18
1.32652e-12
5.48163e-07
4.03131e-30
3.28519e-24
2.35392e-18
1.32642e-12
5.48141e-07
4.027e-30
3.28269e-24
2.35262e-18
1.32598e-12
5.48052e-07
4.02667e-30
3.28249e-24
2.35251e-18
1.32595e-12
5.48044e-07
4.02569e-30
3.28192e-24
2.35221e-18
1.32585e-12
5.48022e-07
4.02569e-30
3.28192e-24
2.35221e-18
1.32585e-12
5.48022e-07
4.02667e-30
3.28249e-24
2.35251e-18
1.32595e-12
5.48044e-07
4.027e-30
3.28269e-24
2.35262e-18
1.32598e-12
5.48052e-07
4.03131e-30
3.28519e-24
2.35392e-18
1.32642e-12
5.48141e-07
4.03234e-30
3.28579e-24
2.35423e-18
1.32652e-12
5.48163e-07
4.04556e-30
3.29324e-24
2.35804e-18
1.32773e-12
5.48387e-07
4.04803e-30
3.29457e-24
2.3587e-18
1.32793e-12
5.48419e-07
4.07989e-30
3.30964e-24
2.36539e-18
1.32922e-12
5.48286e-07
4.08326e-30
3.31066e-24
2.36565e-18
1.32909e-12
5.4817e-07
4.10776e-30
3.28731e-24
2.33977e-18
1.30909e-12
5.38862e-07
8.10033e-30
5.60813e-24
3.4747e-18
1.63803e-12
5.35151e-07
8.04447e-30
5.62613e-24
3.50348e-18
1.66089e-12
5.44526e-07
8.0384e-30
5.6241e-24
3.50294e-18
1.66102e-12
5.44646e-07
7.97832e-30
5.59709e-24
3.49237e-18
1.65927e-12
5.44801e-07
7.97371e-30
5.59482e-24
3.49138e-18
1.65902e-12
5.44771e-07
7.94874e-30
5.58212e-24
3.48572e-18
1.65751e-12
5.44555e-07
7.94682e-30
5.58112e-24
3.48526e-18
1.65738e-12
5.44534e-07
7.93868e-30
5.57689e-24
3.48333e-18
1.65684e-12
5.44447e-07
7.93805e-30
5.57656e-24
3.48318e-18
1.6568e-12
5.44439e-07
7.93621e-30
5.5756e-24
3.48274e-18
1.65667e-12
5.44418e-07
7.93621e-30
5.5756e-24
3.48274e-18
1.65667e-12
5.44418e-07
7.93805e-30
5.57656e-24
3.48318e-18
1.6568e-12
5.44439e-07
7.93868e-30
5.57689e-24
3.48333e-18
1.65684e-12
5.44447e-07
7.94682e-30
5.58112e-24
3.48526e-18
1.65738e-12
5.44534e-07
7.94874e-30
5.58212e-24
3.48572e-18
1.65751e-12
5.44555e-07
7.97371e-30
5.59482e-24
3.49138e-18
1.65902e-12
5.44771e-07
7.97832e-30
5.59709e-24
3.49237e-18
1.65927e-12
5.44801e-07
8.0384e-30
5.6241e-24
3.50294e-18
1.66102e-12
5.44646e-07
8.04447e-30
5.62613e-24
3.50348e-18
1.66089e-12
5.44526e-07
8.10033e-30
5.60813e-24
3.4747e-18
1.63803e-12
5.35151e-07
1.43875e-29
8.83485e-24
4.83296e-18
1.96336e-12
5.31485e-07
1.42637e-29
8.83933e-24
4.8641e-18
1.98914e-12
5.40926e-07
1.42532e-29
8.83581e-24
4.86323e-18
1.98928e-12
5.41049e-07
1.41477e-29
8.79192e-24
4.848e-18
1.9871e-12
5.41226e-07
1.41397e-29
8.78836e-24
4.84663e-18
1.9868e-12
5.41198e-07
1.40963e-29
8.7684e-24
4.83875e-18
1.985e-12
5.4099e-07
1.4093e-29
8.76684e-24
4.83812e-18
1.98485e-12
5.40969e-07
1.40788e-29
8.76023e-24
4.83546e-18
1.9842e-12
5.40885e-07
1.40778e-29
8.75972e-24
4.83525e-18
1.98415e-12
5.40878e-07
1.40746e-29
8.75822e-24
4.83464e-18
1.984e-12
5.40857e-07
1.40746e-29
8.75822e-24
4.83464e-18
1.984e-12
5.40857e-07
1.40778e-29
8.75972e-24
4.83525e-18
1.98415e-12
5.40878e-07
1.40788e-29
8.76023e-24
4.83546e-18
1.9842e-12
5.40885e-07
1.4093e-29
8.76684e-24
4.83812e-18
1.98485e-12
5.40969e-07
1.40963e-29
8.7684e-24
4.83875e-18
1.985e-12
5.4099e-07
1.41397e-29
8.78836e-24
4.84663e-18
1.9868e-12
5.41198e-07
1.41477e-29
8.79192e-24
4.848e-18
1.9871e-12
5.41226e-07
1.42532e-29
8.83581e-24
4.86323e-18
1.98928e-12
5.41049e-07
1.42637e-29
8.83933e-24
4.8641e-18
1.98914e-12
5.40926e-07
1.43875e-29
8.83485e-24
4.83296e-18
1.96336e-12
5.31485e-07
2.37199e-29
1.31129e-23
6.41101e-18
2.28498e-12
5.27861e-07
2.34752e-29
1.30937e-23
6.44407e-18
2.31376e-12
5.37367e-07
2.34579e-29
1.30882e-23
6.44282e-18
2.31392e-12
5.37494e-07
2.32841e-29
1.30218e-23
6.42219e-18
2.31133e-12
5.37691e-07
2.32712e-29
1.30165e-23
6.42037e-18
2.31099e-12
5.37665e-07
2.32005e-29
1.2987e-23
6.40996e-18
2.3089e-12
5.37464e-07
2.31951e-29
1.29847e-23
6.40913e-18
2.30873e-12
5.37445e-07
2.31722e-29
1.29749e-23
6.40563e-18
2.30799e-12
5.37363e-07
2.31704e-29
1.29742e-23
6.40535e-18
2.30793e-12
5.37356e-07
2.31653e-29
1.2972e-23
6.40455e-18
2.30776e-12
5.37336e-07
2.31653e-29
1.2972e-23
6.40455e-18
2.30776e-12
5.37336e-07
2.31704e-29
1.29742e-23
6.40535e-18
2.30793e-12
5.37356e-07
2.31722e-29
1.29749e-23
6.40563e-18
2.30799e-12
5.37363e-07
2.31951e-29
1.29847e-23
6.40913e-18
2.30873e-12
5.37445e-07
2.32005e-29
1.2987e-23
6.40996e-18
2.3089e-12
5.37464e-07
2.32712e-29
1.30165e-23
6.42037e-18
2.31099e-12
5.37665e-07
2.32841e-29
1.30218e-23
6.42219e-18
2.31133e-12
5.37691e-07
2.34579e-29
1.30882e-23
6.44282e-18
2.31392e-12
5.37494e-07
2.34752e-29
1.30937e-23
6.44407e-18
2.31376e-12
5.37367e-07
2.37199e-29
1.31129e-23
6.41101e-18
2.28498e-12
5.27861e-07
3.69505e-29
1.85847e-23
8.20517e-18
2.60282e-12
5.24274e-07
3.65133e-29
1.853e-23
8.23981e-18
2.63468e-12
5.33844e-07
3.64861e-29
1.85219e-23
8.23814e-18
2.63485e-12
5.33975e-07
3.62149e-29
1.84265e-23
8.21143e-18
2.63189e-12
5.34193e-07
3.6195e-29
1.84191e-23
8.20911e-18
2.63151e-12
5.34168e-07
3.60857e-29
1.83774e-23
8.19584e-18
2.62915e-12
5.33975e-07
3.60775e-29
1.83742e-23
8.1948e-18
2.62895e-12
5.33956e-07
3.60422e-29
1.83605e-23
8.19034e-18
2.62812e-12
5.33877e-07
3.60395e-29
1.83594e-23
8.19e-18
2.62805e-12
5.3387e-07
3.60316e-29
1.83563e-23
8.18898e-18
2.62786e-12
5.33851e-07
3.60316e-29
1.83563e-23
8.18898e-18
2.62786e-12
5.33851e-07
3.60395e-29
1.83594e-23
8.19e-18
2.62805e-12
5.3387e-07
3.60422e-29
1.83605e-23
8.19034e-18
2.62812e-12
5.33877e-07
3.60775e-29
1.83742e-23
8.1948e-18
2.62895e-12
5.33956e-07
3.60857e-29
1.83774e-23
8.19584e-18
2.62915e-12
5.33975e-07
3.6195e-29
1.84191e-23
8.20911e-18
2.63151e-12
5.34168e-07
3.62149e-29
1.84265e-23
8.21143e-18
2.63189e-12
5.34193e-07
3.64861e-29
1.85219e-23
8.23814e-18
2.63485e-12
5.33975e-07
3.65133e-29
1.853e-23
8.23981e-18
2.63468e-12
5.33844e-07
3.69505e-29
1.85847e-23
8.20517e-18
2.60282e-12
5.24274e-07
5.50333e-29
2.53898e-23
1.02117e-17
2.91679e-12
5.20722e-07
5.43104e-29
2.5286e-23
1.02477e-17
2.9518e-12
5.30355e-07
5.42696e-29
2.52746e-23
1.02455e-17
2.95199e-12
5.30489e-07
5.38647e-29
2.51432e-23
1.02121e-17
2.94869e-12
5.30727e-07
5.38354e-29
2.51332e-23
1.02092e-17
2.94827e-12
5.30704e-07
5.36738e-29
2.50764e-23
1.01928e-17
2.94565e-12
5.30518e-07
5.36617e-29
2.50721e-23
1.01915e-17
2.94544e-12
5.305e-07
5.36096e-29
2.50535e-23
1.0186e-17
2.94451e-12
5.30423e-07
5.36057e-29
2.50521e-23
1.01856e-17
2.94444e-12
5.30416e-07
5.3594e-29
2.50479e-23
1.01843e-17
2.94422e-12
5.30398e-07
5.3594e-29
2.50479e-23
1.01843e-17
2.94422e-12
5.30398e-07
5.36057e-29
2.50521e-23
1.01856e-17
2.94444e-12
5.30416e-07
5.36096e-29
2.50535e-23
1.0186e-17
2.94451e-12
5.30423e-07
5.36617e-29
2.50721e-23
1.01915e-17
2.94544e-12
5.305e-07
5.36738e-29
2.50764e-23
1.01928e-17
2.94565e-12
5.30518e-07
5.38354e-29
2.51332e-23
1.02092e-17
2.94827e-12
5.30704e-07
5.38647e-29
2.51432e-23
1.02121e-17
2.94869e-12
5.30727e-07
5.42696e-29
2.52746e-23
1.02455e-17
2.95199e-12
5.30489e-07
5.43104e-29
2.5286e-23
1.02477e-17
2.9518e-12
5.30355e-07
5.50333e-29
2.53898e-23
1.02117e-17
2.91679e-12
5.20722e-07
7.90213e-29
3.36647e-23
1.24267e-17
3.22681e-12
5.172e-07
7.78952e-29
3.34963e-23
1.24638e-17
3.26504e-12
5.26895e-07
7.78362e-29
3.3481e-23
1.24612e-17
3.26526e-12
5.27032e-07
7.7254e-29
3.33061e-23
1.24205e-17
3.26166e-12
5.2729e-07
7.72124e-29
3.32928e-23
1.2417e-17
3.2612e-12
5.27268e-07
7.69816e-29
3.32179e-23
1.23971e-17
3.25833e-12
5.2709e-07
7.69645e-29
3.32123e-23
1.23956e-17
3.2581e-12
5.27072e-07
7.68903e-29
3.31878e-23
1.2389e-17
3.25708e-12
5.26998e-07
7.68849e-29
3.3186e-23
1.23885e-17
3.257e-12
5.26991e-07
7.68682e-29
3.31805e-23
1.23869e-17
3.25677e-12
5.26974e-07
7.68682e-29
3.31805e-23
1.23869e-17
3.25677e-12
5.26974e-07
7.68849e-29
3.3186e-23
1.23885e-17
3.257e-12
5.26991e-07
7.68903e-29
3.31878e-23
1.2389e-17
3.25708e-12
5.26998e-07
7.69645e-29
3.32123e-23
1.23956e-17
3.2581e-12
5.27072e-07
7.69816e-29
3.32179e-23
1.23971e-17
3.25833e-12
5.2709e-07
7.72124e-29
3.32928e-23
1.2417e-17
3.2612e-12
5.27268e-07
7.7254e-29
3.33061e-23
1.24205e-17
3.26166e-12
5.2729e-07
7.78362e-29
3.3481e-23
1.24612e-17
3.26526e-12
5.27032e-07
7.78952e-29
3.34963e-23
1.24638e-17
3.26504e-12
5.26895e-07
7.90213e-29
3.36647e-23
1.24267e-17
3.22681e-12
5.172e-07
1.10064e-28
4.35426e-23
1.48463e-17
3.53279e-12
5.13701e-07
1.08391e-28
4.32927e-23
1.48844e-17
3.57431e-12
5.23456e-07
1.08308e-28
4.32728e-23
1.48813e-17
3.57458e-12
5.23598e-07
1.07497e-28
4.30461e-23
1.48327e-17
3.57069e-12
5.23875e-07
1.07439e-28
4.30291e-23
1.48286e-17
3.5702e-12
5.23854e-07
1.0712e-28
4.29327e-23
1.48051e-17
3.5671e-12
5.23683e-07
1.07096e-28
4.29255e-23
1.48032e-17
3.56684e-12
5.23666e-07
1.06994e-28
4.28941e-23
1.47954e-17
3.56575e-12
5.23594e-07
1.06986e-28
4.28918e-23
1.47948e-17
3.56566e-12
5.23588e-07
1.06963e-28
4.28847e-23
1.4793e-17
3.5654e-12
5.2357e-07
1.06963e-28
4.28847e-23
1.4793e-17
3.5654e-12
5.2357e-07
1.06986e-28
4.28918e-23
1.47948e-17
3.56566e-12
5.23588e-07
1.06994e-28
4.28941e-23
1.47954e-17
3.56575e-12
5.23594e-07
1.07096e-28
4.29255e-23
1.48032e-17
3.56684e-12
5.23666e-07
1.0712e-28
4.29327e-23
1.48051e-17
3.5671e-12
5.23683e-07
1.07439e-28
4.30291e-23
1.48286e-17
3.5702e-12
5.23854e-07
1.07497e-28
4.30461e-23
1.48327e-17
3.57069e-12
5.23875e-07
1.08308e-28
4.32728e-23
1.48813e-17
3.57458e-12
5.23598e-07
1.08391e-28
4.32927e-23
1.48844e-17
3.57431e-12
5.23456e-07
1.10064e-28
4.35426e-23
1.48463e-17
3.53279e-12
5.13701e-07
1.49406e-28
5.51537e-23
1.74662e-17
3.83463e-12
5.10197e-07
1.47012e-28
5.48035e-23
1.75055e-17
3.87952e-12
5.20013e-07
1.469e-28
5.47783e-23
1.75019e-17
3.87983e-12
5.20158e-07
1.45799e-28
5.44913e-23
1.74449e-17
3.8757e-12
5.20454e-07
1.45722e-28
5.447e-23
1.74402e-17
3.87517e-12
5.20435e-07
1.4529e-28
5.43486e-23
1.74126e-17
3.87185e-12
5.20271e-07
1.45259e-28
5.43395e-23
1.74105e-17
3.87157e-12
5.20254e-07
1.45121e-28
5.43001e-23
1.74013e-17
3.8704e-12
5.20185e-07
1.45111e-28
5.42972e-23
1.74007e-17
3.87031e-12
5.20179e-07
1.4508e-28
5.42883e-23
1.73986e-17
3.87003e-12
5.20162e-07
1.4508e-28
5.42883e-23
1.73986e-17
3.87003e-12
5.20162e-07
1.45111e-28
5.42972e-23
1.74007e-17
3.87031e-12
5.20179e-07
1.45121e-28
5.43001e-23
1.74013e-17
3.8704e-12
5.20185e-07
1.45259e-28
5.43395e-23
1.74105e-17
3.87157e-12
5.20254e-07
1.4529e-28
5.43486e-23
1.74126e-17
3.87185e-12
5.20271e-07
1.45722e-28
5.447e-23
1.74402e-17
3.87517e-12
5.20435e-07
1.45799e-28
5.44913e-23
1.74449e-17
3.8757e-12
5.20454e-07
1.469e-28
5.47783e-23
1.75019e-17
3.87983e-12
5.20158e-07
1.47012e-28
5.48035e-23
1.75055e-17
3.87952e-12
5.20013e-07
1.49406e-28
5.51537e-23
1.74662e-17
3.83463e-12
5.10197e-07
-7.36166e-07
-6.17518e-08
-1.0335e-09
-3.80192e-12
-2.71351e-15
8.0799e-18
8.53182e-18
8.53847e-18
8.54002e-18
8.54026e-18
8.5409e-18
8.54302e-18
8.55556e-18
8.57278e-18
8.7252e-18
8.8683e-18
1.04328e-17
1.13422e-17
3.46809e-17
4.06863e-17
-8.04599e-07
-6.81514e-08
-1.17077e-09
-4.4375e-12
-3.27413e-15
7.98438e-18
8.53159e-18
8.53837e-18
8.53992e-18
8.5401e-18
8.54016e-18
8.54193e-18
8.55468e-18
8.57215e-18
8.72677e-18
8.87133e-18
1.04533e-17
1.13683e-17
3.4945e-17
4.10063e-17
-8.06505e-07
-6.83012e-08
-1.17328e-09
-4.44776e-12
-3.28289e-15
7.98284e-18
8.53159e-18
8.53838e-18
8.53992e-18
8.54011e-18
8.54017e-18
8.542e-18
8.55476e-18
8.57224e-18
8.7269e-18
8.8715e-18
1.04537e-17
1.13687e-17
3.49475e-17
4.10088e-17
-8.13384e-07
-6.88114e-08
-1.18057e-09
-4.47365e-12
-3.30351e-15
7.97929e-18
8.5316e-18
8.53839e-18
8.53994e-18
8.54013e-18
8.54028e-18
8.54229e-18
8.55508e-18
8.57257e-18
8.72736e-18
8.87203e-18
1.04549e-17
1.13701e-17
3.49547e-17
4.10153e-17
-8.13655e-07
-6.8829e-08
-1.18078e-09
-4.47425e-12
-3.30391e-15
7.97922e-18
8.5316e-18
8.53839e-18
8.53994e-18
8.54013e-18
8.54029e-18
8.5423e-18
8.55509e-18
8.57258e-18
8.72738e-18
8.87205e-18
1.0455e-17
1.13702e-17
3.49548e-17
4.10154e-17
-8.14332e-07
-6.88603e-08
-1.18098e-09
-4.47443e-12
-3.30383e-15
7.97921e-18
8.5316e-18
8.53839e-18
8.53994e-18
8.54013e-18
8.5403e-18
8.54231e-18
8.5551e-18
8.5726e-18
8.7274e-18
8.87207e-18
1.0455e-17
1.13702e-17
3.49551e-17
4.10156e-17
-8.1438e-07
-6.88619e-08
-1.18097e-09
-4.47437e-12
-3.30376e-15
7.97923e-18
8.5316e-18
8.53839e-18
8.53994e-18
8.54013e-18
8.5403e-18
8.54231e-18
8.5551e-18
8.5726e-18
8.7274e-18
8.87207e-18
1.0455e-17
1.13702e-17
3.49551e-17
4.10156e-17
-8.14498e-07
-6.88634e-08
-1.18092e-09
-4.47406e-12
-3.30349e-15
7.97926e-18
8.5316e-18
8.53839e-18
8.53994e-18
8.54013e-18
8.5403e-18
8.54231e-18
8.5551e-18
8.5726e-18
8.7274e-18
8.87207e-18
1.0455e-17
1.13702e-17
3.49551e-17
4.10156e-17
-8.14508e-07
-6.88634e-08
-1.18091e-09
-4.47402e-12
-3.30346e-15
7.97927e-18
8.5316e-18
8.53839e-18
8.53994e-18
8.54013e-18
8.5403e-18
8.54231e-18
8.5551e-18
8.5726e-18
8.7274e-18
8.87207e-18
1.0455e-17
1.13702e-17
3.49551e-17
4.10156e-17
-8.1453e-07
-6.88633e-08
-1.1809e-09
-4.47394e-12
-3.3034e-15
7.97928e-18
8.5316e-18
8.53839e-18
8.53994e-18
8.54013e-18
8.5403e-18
8.54231e-18
8.5551e-18
8.5726e-18
8.7274e-18
8.87207e-18
1.0455e-17
1.13702e-17
3.49551e-17
4.10156e-17
-8.1453e-07
-6.88633e-08
-1.1809e-09
-4.47394e-12
-3.3034e-15
7.97928e-18
8.5316e-18
8.53839e-18
8.53994e-18
8.54013e-18
8.5403e-18
8.54231e-18
8.5551e-18
8.5726e-18
8.7274e-18
8.87207e-18
1.0455e-17
1.13702e-17
3.49551e-17
4.10156e-17
-8.14508e-07
-6.88634e-08
-1.18091e-09
-4.47402e-12
-3.30346e-15
7.97927e-18
8.5316e-18
8.53839e-18
8.53994e-18
8.54013e-18
8.5403e-18
8.54231e-18
8.5551e-18
8.5726e-18
8.7274e-18
8.87207e-18
1.0455e-17
1.13702e-17
3.49551e-17
4.10156e-17
-8.14498e-07
-6.88634e-08
-1.18092e-09
-4.47406e-12
-3.30349e-15
7.97926e-18
8.5316e-18
8.53839e-18
8.53994e-18
8.54013e-18
8.5403e-18
8.54231e-18
8.5551e-18
8.5726e-18
8.7274e-18
8.87207e-18
1.0455e-17
1.13702e-17
3.49551e-17
4.10156e-17
-8.1438e-07
-6.88619e-08
-1.18097e-09
-4.47437e-12
-3.30376e-15
7.97923e-18
8.5316e-18
8.53839e-18
8.53994e-18
8.54013e-18
8.5403e-18
8.54231e-18
8.5551e-18
8.5726e-18
8.7274e-18
8.87207e-18
1.0455e-17
1.13702e-17
3.49551e-17
4.10156e-17
-8.14332e-07
-6.88603e-08
-1.18098e-09
-4.47443e-12
-3.30383e-15
7.97921e-18
8.5316e-18
8.53839e-18
8.53994e-18
8.54013e-18
8.5403e-18
8.54231e-18
8.5551e-18
8.5726e-18
8.7274e-18
8.87207e-18
1.0455e-17
1.13702e-17
3.49551e-17
4.10156e-17
-8.13655e-07
-6.8829e-08
-1.18078e-09
-4.47425e-12
-3.30391e-15
7.97922e-18
8.5316e-18
8.53839e-18
8.53994e-18
8.54013e-18
8.54029e-18
8.5423e-18
8.55509e-18
8.57258e-18
8.72738e-18
8.87205e-18
1.0455e-17
1.13702e-17
3.49548e-17
4.10154e-17
-8.13384e-07
-6.88114e-08
-1.18057e-09
-4.47365e-12
-3.30351e-15
7.97929e-18
8.5316e-18
8.53839e-18
8.53994e-18
8.54013e-18
8.54028e-18
8.54229e-18
8.55508e-18
8.57257e-18
8.72736e-18
8.87203e-18
1.04549e-17
1.13701e-17
3.49547e-17
4.10153e-17
-8.06505e-07
-6.83012e-08
-1.17328e-09
-4.44776e-12
-3.28289e-15
7.98284e-18
8.53159e-18
8.53838e-18
8.53992e-18
8.54011e-18
8.54017e-18
8.542e-18
8.55476e-18
8.57224e-18
8.7269e-18
8.8715e-18
1.04537e-17
1.13687e-17
3.49475e-17
4.10088e-17
-8.04599e-07
-6.81514e-08
-1.17077e-09
-4.4375e-12
-3.27413e-15
7.98438e-18
8.53159e-18
8.53837e-18
8.53992e-18
8.5401e-18
8.54016e-18
8.54193e-18
8.55468e-18
8.57215e-18
8.72677e-18
8.87133e-18
1.04533e-17
1.13683e-17
3.4945e-17
4.10063e-17
-7.36166e-07
-6.17518e-08
-1.0335e-09
-3.80192e-12
-2.71351e-15
8.0799e-18
8.53182e-18
8.53847e-18
8.54002e-18
8.54026e-18
8.5409e-18
8.54302e-18
8.55556e-18
8.57278e-18
8.7252e-18
8.8683e-18
1.04328e-17
1.13422e-17
3.46809e-17
4.06863e-17
-3.47884e-05
-4.33399e-06
-9.89007e-08
-4.35768e-10
-3.58415e-13
9.35542e-16
1.00222e-15
1.00319e-15
1.00342e-15
1.00345e-15
1.00353e-15
1.0038e-15
1.0054e-15
1.00755e-15