/*--------------------------------*- C++ -*----------------------------------*\
  =========                 |
  \\      /  F ield         | OpenFOAM: The Open Source CFD Toolbox
   \\    /   O peration     | Website:  https://openfoam.org
    \\  /    A nd           | Version:  8
     \\/     M anipulation  |
\*---------------------------------------------------------------------------*/
FoamFile
{
    version     2.0;
    format      ascii;
    class       volScalarField;
    location    "1.4";
    object      p;
}
// * * * * * * * * * * * * * * * * * * * * * * * * * * * * * * * * * * * * * //

dimensions      [0 2 -2 0 0 0 0];

internalField   nonuniform List<scalar> 
180000
(
0.00105241
0.000981758
0.00103146
0.000869557
0.000959519
0.00103781
0.000967473
0.00101684
0.000856498
0.000945078
0.00103729
0.000966983
0.00101633
0.000856076
0.000944591
0.00103401
0.000963827
0.00101303
0.000853329
0.000941499
0.00103379
0.000963623
0.00101282
0.000853152
0.000941294
0.00103278
0.000962653
0.0010118
0.000852308
0.000940334
0.0010327
0.000962578
0.00101172
0.000852242
0.000940258
0.00103238
0.000962276
0.0010114
0.000851978
0.000939957
0.00103236
0.000962253
0.00101137
0.000851958
0.000939934
0.00103229
0.000962185
0.0010113
0.000851898
0.000939866
0.00103229
0.000962185
0.0010113
0.000851898
0.000939866
0.00103236
0.000962253
0.00101137
0.000851958
0.000939934
0.00103238
0.000962276
0.0010114
0.000851978
0.000939957
0.0010327
0.000962578
0.00101172
0.000852242
0.000940258
0.00103278
0.000962653
0.0010118
0.000852308
0.000940334
0.00103379
0.000963623
0.00101282
0.000853152
0.000941294
0.00103401
0.000963827
0.00101303
0.000853329
0.000941499
0.00103729
0.000966983
0.00101633
0.000856076
0.000944591
0.00103781
0.000967473
0.00101684
0.000856498
0.000945078
0.00105241
0.000981758
0.00103146
0.000869557
0.000959519
0.00078708
0.00076581
0.000781796
0.000720068
0.000758511
0.000783184
0.000760868
0.000777554
0.000713984
0.000753154
0.000783043
0.000760696
0.000777402
0.000713785
0.000752971
0.000782103
0.000759542
0.000776381
0.000712449
0.000751762
0.000782042
0.000759468
0.000776315
0.000712363
0.000751683
0.000781746
0.000759108
0.000775992
0.000711949
0.000751302
0.000781723
0.000759081
0.000775967
0.000711917
0.000751272
0.00078163
0.000758968
0.000775866
0.000711787
0.000751152
0.000781623
0.000758959
0.000775858
0.000711777
0.000751143
0.000781602
0.000758934
0.000775835
0.000711747
0.000751116
0.000781602
0.000758934
0.000775835
0.000711747
0.000751116
0.000781623
0.000758959
0.000775858
0.000711777
0.000751143
0.00078163
0.000758968
0.000775866
0.000711787
0.000751152
0.000781723
0.000759081
0.000775967
0.000711917
0.000751272
0.000781746
0.000759108
0.000775992
0.000711949
0.000751302
0.000782042
0.000759468
0.000776315
0.000712363
0.000751683
0.000782103
0.000759542
0.000776381
0.000712449
0.000751762
0.000783043
0.000760696
0.000777402
0.000713785
0.000752971
0.000783184
0.000760868
0.000777554
0.000713984
0.000753154
0.00078708
0.00076581
0.000781796
0.000720068
0.000758511
0.000574289
0.000554118
0.000569521
0.000515282
0.000550904
0.000570436
0.000549775
0.000565493
0.000510531
0.000546326
0.000570299
0.000549626
0.000565351
0.000510377
0.000546171
0.000569358
0.000548592
0.000564368
0.000509305
0.000545112
0.000569298
0.000548527
0.000564305
0.000509237
0.000545044
0.000569002
0.000548204
0.000563994
0.000508904
0.00054471
0.000568979
0.00054818
0.00056397
0.000508878
0.000544684
0.000568886
0.000548078
0.000563872
0.000508773
0.000544578
0.000568879
0.00054807
0.000563865
0.000508765
0.00054457
0.000568858
0.000548047
0.000563843
0.000508741
0.000544546
0.000568858
0.000548047
0.000563843
0.000508741
0.000544546
0.000568879
0.00054807
0.000563865
0.000508765
0.00054457
0.000568886
0.000548078
0.000563872
0.000508773
0.000544578
0.000568979
0.00054818
0.00056397
0.000508878
0.000544684
0.000569002
0.000548204
0.000563994
0.000508904
0.00054471
0.000569298
0.000548527
0.000564305
0.000509237
0.000545044
0.000569358
0.000548592
0.000564368
0.000509305
0.000545112
0.000570299
0.000549626
0.000565351
0.000510377
0.000546171
0.000570436
0.000549775
0.000565493
0.000510531
0.000546326
0.000574289
0.000554118
0.000569521
0.000515282
0.000550904
0.000555091
0.000527085
0.000548252
0.000478821
0.000525394
0.000549504
0.000521402
0.000542603
0.000473318
0.000519592
0.000549305
0.000521206
0.000542402
0.000473138
0.000519394
0.000547957
0.000519859
0.000541037
0.000471887
0.00051805
0.000547871
0.000519774
0.000540949
0.000471809
0.000517963
0.000547449
0.000519354
0.00054052
0.00047142
0.00051754
0.000547417
0.000519322
0.000540487
0.00047139
0.000517508
0.000547285
0.00051919
0.000540352
0.000471267
0.000517374
0.000547275
0.00051918
0.000540341
0.000471258
0.000517364
0.000547245
0.000519151
0.000540311
0.00047123
0.000517333
0.000547245
0.000519151
0.000540311
0.00047123
0.000517333
0.000547275
0.00051918
0.000540341
0.000471258
0.000517364
0.000547285
0.00051919
0.000540352
0.000471267
0.000517374
0.000547417
0.000519322
0.000540487
0.00047139
0.000517508
0.000547449
0.000519354
0.00054052
0.00047142
0.00051754
0.000547871
0.000519774
0.000540949
0.000471809
0.000517963
0.000547957
0.000519859
0.000541037
0.000471887
0.00051805
0.000549305
0.000521206
0.000542402
0.000473138
0.000519394
0.000549504
0.000521402
0.000542603
0.000473318
0.000519592
0.000555091
0.000527085
0.000548252
0.000478821
0.000525394
0.000581943
0.000552487
0.000575117
0.000501194
0.000553791
0.000576101
0.000546524
0.000569206
0.000495402
0.000547737
0.000575891
0.000546316
0.000568994
0.000495211
0.000547528
0.000574457
0.000544878
0.000567541
0.000493872
0.000546096
0.000574366
0.000544788
0.000567447
0.000493788
0.000546003
0.000573916
0.000544339
0.000566989
0.000493371
0.000545552
0.000573882
0.000544305
0.000566954
0.00049334
0.000545517
0.000573741
0.000544164
0.00056681
0.000493208
0.000545374
0.00057373
0.000544153
0.000566799
0.000493198
0.000545363
0.000573698
0.000544121
0.000566766
0.000493168
0.000545331
0.000573698
0.000544121
0.000566766
0.000493168
0.000545331
0.00057373
0.000544153
0.000566799
0.000493198
0.000545363
0.000573741
0.000544164
0.00056681
0.000493208
0.000545374
0.000573882
0.000544305
0.000566954
0.00049334
0.000545517
0.000573916
0.000544339
0.000566989
0.000493371
0.000545552
0.000574366
0.000544788
0.000567447
0.000493788
0.000546003
0.000574457
0.000544878
0.000567541
0.000493872
0.000546096
0.000575891
0.000546316
0.000568994
0.000495211
0.000547528
0.000576101
0.000546524
0.000569206
0.000495402
0.000547737
0.000581943
0.000552487
0.000575117
0.000501194
0.000553791
0.000592818
0.000564618
0.000586819
0.00051443
0.000570026
0.000587294
0.00055891
0.000581211
0.000508795
0.000564247
0.000587093
0.000558709
0.000581008
0.000508607
0.000564043
0.000585703
0.000557299
0.000579595
0.000507274
0.000562636
0.000585615
0.000557211
0.000579504
0.00050719
0.000562545
0.000585177
0.000556769
0.000579057
0.000506774
0.0005621
0.000585144
0.000556736
0.000579023
0.000506742
0.000562066
0.000585006
0.000556597
0.000578882
0.00050661
0.000561925
0.000584996
0.000556586
0.000578871
0.0005066
0.000561914
0.000584964
0.000556555
0.000578839
0.00050657
0.000561882
0.000584964
0.000556555
0.000578839
0.00050657
0.000561882
0.000584996
0.000556586
0.000578871
0.0005066
0.000561914
0.000585006
0.000556597
0.000578882
0.00050661
0.000561925
0.000585144
0.000556736
0.000579023
0.000506742
0.000562066
0.000585177
0.000556769
0.000579057
0.000506774
0.0005621
0.000585615
0.000557211
0.000579504
0.00050719
0.000562545
0.000585703
0.000557299
0.000579595
0.000507274
0.000562636
0.000587093
0.000558709
0.000581008
0.000508607
0.000564043
0.000587294
0.00055891
0.000581211
0.000508795
0.000564247
0.000592818
0.000564618
0.000586819
0.00051443
0.000570026
0.000591074
0.000563834
0.000585779
0.000514922
0.0005736
0.000585783
0.000558351
0.000580408
0.000509483
0.000568074
0.00058559
0.000558157
0.000580213
0.000509301
0.000567877
0.000584228
0.000556773
0.000578828
0.000507984
0.000566492
0.000584143
0.000556686
0.00057874
0.000507903
0.000566404
0.000583712
0.000556251
0.000578299
0.000507489
0.000565964
0.00058368
0.000556219
0.000578266
0.000507459
0.000565931
0.000583543
0.000556081
0.000578126
0.000507327
0.000565791
0.000583533
0.000556071
0.000578116
0.000507317
0.00056578
0.000583502
0.000556039
0.000578084
0.000507287
0.000565748
0.000583502
0.000556039
0.000578084
0.000507287
0.000565748
0.000583533
0.000556071
0.000578116
0.000507317
0.00056578
0.000583543
0.000556081
0.000578126
0.000507327
0.000565791
0.00058368
0.000556219
0.000578266
0.000507459
0.000565931
0.000583712
0.000556251
0.000578299
0.000507489
0.000565964
0.000584143
0.000556686
0.00057874
0.000507903
0.000566404
0.000584228
0.000556773
0.000578828
0.000507984
0.000566492
0.00058559
0.000558157
0.000580213
0.000509301
0.000567877
0.000585783
0.000558351
0.000580408
0.000509483
0.000568074
0.000591074
0.000563834
0.000585779
0.000514922
0.0005736
0.000587918
0.000561035
0.00058313
0.000512757
0.000574882
0.000582728
0.000555669
0.000577869
0.000507444
0.000569499
0.000582538
0.000555478
0.000577676
0.000507265
0.000569305
0.000581176
0.000554096
0.000576292
0.000505951
0.000567922
0.000581091
0.00055401
0.000576204
0.00050587
0.000567834
0.000580658
0.000553574
0.000575763
0.000505456
0.000567393
0.000580626
0.000553542
0.00057573
0.000505426
0.00056736
0.000580489
0.000553404
0.000575589
0.000505294
0.00056722
0.000580479
0.000553394
0.000575579
0.000505284
0.000567209
0.000580447
0.000553362
0.000575547
0.000505254
0.000567177
0.000580447
0.000553362
0.000575547
0.000505254
0.000567177
0.000580479
0.000553394
0.000575579
0.000505284
0.000567209
0.000580489
0.000553404
0.000575589
0.000505294
0.00056722
0.000580626
0.000553542
0.00057573
0.000505426
0.00056736
0.000580658
0.000553574
0.000575763
0.000505456
0.000567393
0.000581091
0.000554011
0.000576204
0.00050587
0.000567834
0.000581176
0.000554096
0.000576292
0.000505951
0.000567922
0.000582538
0.000555478
0.000577676
0.000507265
0.000569305
0.000582728
0.000555669
0.000577869
0.000507444
0.000569499
0.000587918
0.000561035
0.00058313
0.000512757
0.000574882
0.000586468
0.000559798
0.000582135
0.00051198
0.000577202
0.000581351
0.000554517
0.000576953
0.000506759
0.000571919
0.000581162
0.000554328
0.000576762
0.000506582
0.000571727
0.000579794
0.000552942
0.000575373
0.000505265
0.000570338
0.000579709
0.000552856
0.000575286
0.000505185
0.000570251
0.000579273
0.000552418
0.000574842
0.000504769
0.000569807
0.000579241
0.000552385
0.000574808
0.000504738
0.000569774
0.000579102
0.000552246
0.000574666
0.000504605
0.000569632
0.000579092
0.000552236
0.000574656
0.000504596
0.000569621
0.00057906
0.000552204
0.000574624
0.000504565
0.000569589
0.00057906
0.000552204
0.000574624
0.000504565
0.000569589
0.000579092
0.000552236
0.000574656
0.000504596
0.000569621
0.000579102
0.000552246
0.000574666
0.000504605
0.000569632
0.000579241
0.000552385
0.000574808
0.000504738
0.000569774
0.000579273
0.000552418
0.000574842
0.000504769
0.000569807
0.000579709
0.000552856
0.000575286
0.000505185
0.000570251
0.000579794
0.000552942
0.000575373
0.000505265
0.000570338
0.000581162
0.000554328
0.000576762
0.000506582
0.000571727
0.000581351
0.000554517
0.000576953
0.000506759
0.000571919
0.000586468
0.000559798
0.000582135
0.00051198
0.000577202
0.000585853
0.000559449
0.000581981
0.000512212
0.000579767
0.000580821
0.00055426
0.00057689
0.000507083
0.000574578
0.000580634
0.000554074
0.000576701
0.000506908
0.000574388
0.000579264
0.000552686
0.00057531
0.000505589
0.000572995
0.000579179
0.000552601
0.000575223
0.000505509
0.000572907
0.000578741
0.000552161
0.000574777
0.000505091
0.000572461
0.000578709
0.000552128
0.000574744
0.00050506
0.000572427
0.000578569
0.000551988
0.000574601
0.000504926
0.000572285
0.000578559
0.000551978
0.00057459
0.000504917
0.000572274
0.000578527
0.000551945
0.000574558
0.000504886
0.000572241
0.000578527
0.000551945
0.000574558
0.000504886
0.000572241
0.000578559
0.000551978
0.00057459
0.000504917
0.000572274
0.000578569
0.000551988
0.000574601
0.000504926
0.000572285
0.000578709
0.000552128
0.000574744
0.00050506
0.000572427
0.000578741
0.000552161
0.000574777
0.000505091
0.000572461
0.000579179
0.000552601
0.000575223
0.000505509
0.000572907
0.000579264
0.000552686
0.00057531
0.000505589
0.000572995
0.000580634
0.000554074
0.000576701
0.000506908
0.000574388
0.000580821
0.00055426
0.00057689
0.000507083
0.000574578
0.000585853
0.000559449
0.000581981
0.000512212
0.000579767
0.000585241
0.000559139
0.000581827
0.000512603
0.000581469
0.000580302
0.000554049
0.000576834
0.000507569
0.000576357
0.000580118
0.000553865
0.000576648
0.000507396
0.000576168
0.000578748
0.000552479
0.000575258
0.000506076
0.000574771
0.000578663
0.000552394
0.000575172
0.000505996
0.000574684
0.000578224
0.000551952
0.000574724
0.000505577
0.000574235
0.000578191
0.00055192
0.00057469
0.000505546
0.000574201
0.000578051
0.000551779
0.000574547
0.000505411
0.000574057
0.000578041
0.000551768
0.000574536
0.000505401
0.000574046
0.000578008
0.000551736
0.000574503
0.000505371
0.000574013
0.000578008
0.000551736
0.000574503
0.000505371
0.000574013
0.000578041
0.000551768
0.000574536
0.000505401
0.000574046
0.000578051
0.000551779
0.000574547
0.000505411
0.000574057
0.000578191
0.00055192
0.00057469
0.000505546
0.000574201
0.000578224
0.000551952
0.000574724
0.000505577
0.000574235
0.000578663
0.000552394
0.000575172
0.000505996
0.000574684
0.000578748
0.000552479
0.000575258
0.000506076
0.000574771
0.000580118
0.000553865
0.000576648
0.000507396
0.000576168
0.000580302
0.000554049
0.000576834
0.000507569
0.000576357
0.000585241
0.000559139
0.000581827
0.000512603
0.000581469
0.000584503
0.000558698
0.00058153
0.000512871
0.000579862
0.000579655
0.000553705
0.000576633
0.000507932
0.000574836
0.000579473
0.000553524
0.00057645
0.000507761
0.000574651
0.000578104
0.000552139
0.000575062
0.000506441
0.000573254
0.00057802
0.000552055
0.000574976
0.000506361
0.000573167
0.000577579
0.000551612
0.000574526
0.00050594
0.000572716
0.000577547
0.00055158
0.000574493
0.000505909
0.000572683
0.000577405
0.000551438
0.000574349
0.000505774
0.000572538
0.000577395
0.000551427
0.000574338
0.000505764
0.000572527
0.000577363
0.000551395
0.000574305
0.000505733
0.000572494
0.000577363
0.000551395
0.000574305
0.000505733
0.000572494
0.000577395
0.000551427
0.000574338
0.000505764
0.000572527
0.000577405
0.000551438
0.000574349
0.000505774
0.000572538
0.000577547
0.00055158
0.000574493
0.000505909
0.000572683
0.000577579
0.000551612
0.000574526
0.00050594
0.000572716
0.00057802
0.000552055
0.000574976
0.000506361
0.000573167
0.000578104
0.000552139
0.000575062
0.000506441
0.000573254
0.000579473
0.000553524
0.00057645
0.000507761
0.000574651
0.000579655
0.000553705
0.000576633
0.000507932
0.000574836
0.000584503
0.000558698
0.00058153
0.000512871
0.000579862
0.000583738
0.000558215
0.000581187
0.000513001
0.000577317
0.000578978
0.000553317
0.000576383
0.000508154
0.000572379
0.000578798
0.000553138
0.000576202
0.000507985
0.000572196
0.00057743
0.000551754
0.000574816
0.000506665
0.000570803
0.000577347
0.000551671
0.00057473
0.000506586
0.000570716
0.000576904
0.000551226
0.00057428
0.000506164
0.000570264
0.000576872
0.000551194
0.000574247
0.000506133
0.000570231
0.00057673
0.000551052
0.000574102
0.000505997
0.000570085
0.00057672
0.000551042
0.000574091
0.000505987
0.000570074
0.000576687
0.000551009
0.000574058
0.000505956
0.000570041
0.000576687
0.000551009
0.000574058
0.000505956
0.000570041
0.00057672
0.000551042
0.000574091
0.000505987
0.000570074
0.00057673
0.000551052
0.000574102
0.000505997
0.000570085
0.000576872
0.000551194
0.000574247
0.000506133
0.000570231
0.000576904
0.000551226
0.00057428
0.000506164
0.000570264
0.000577347
0.000551671
0.00057473
0.000506586
0.000570716
0.00057743
0.000551754
0.000574816
0.000506665
0.000570803
0.000578798
0.000553138
0.000576202
0.000507985
0.000572196
0.000578978
0.000553317
0.000576383
0.000508154
0.000572379
0.000583738
0.000558215
0.000581187
0.000513001
0.000577317
0.000583002
0.000557751
0.000580857
0.000513038
0.000575052
0.000578328
0.000552944
0.000576144
0.000508282
0.0005702
0.00057815
0.000552767
0.000575965
0.000508116
0.000570019
0.000576784
0.000551386
0.00057458
0.000506797
0.000568628
0.0005767
0.000551303
0.000574495
0.000506718
0.000568542
0.000576257
0.000550857
0.000574044
0.000506294
0.000568089
0.000576225
0.000550825
0.000574011
0.000506264
0.000568056
0.000576082
0.000550682
0.000573865
0.000506127
0.00056791
0.000576071
0.000550672
0.000573854
0.000506117
0.000567899
0.000576038
0.000550639
0.000573821
0.000506085
0.000567865
0.000576038
0.000550639
0.000573821
0.000506085
0.000567865
0.000576071
0.000550672
0.000573854
0.000506117
0.000567899
0.000576082
0.000550682
0.000573865
0.000506127
0.00056791
0.000576225
0.000550825
0.000574011
0.000506264
0.000568056
0.000576257
0.000550857
0.000574044
0.000506294
0.000568089
0.0005767
0.000551303
0.000574495
0.000506718
0.000568542
0.000576784
0.000551386
0.00057458
0.000506797
0.000568628
0.00057815
0.000552767
0.000575965
0.000508116
0.000570019
0.000578328
0.000552944
0.000576144
0.000508282
0.0005702
0.000583002
0.000557751
0.000580857
0.000513038
0.000575052
0.000582297
0.00055731
0.000580544
0.000513005
0.000573064
0.000577706
0.000552592
0.000575919
0.000508337
0.000568296
0.000577531
0.000552418
0.000575743
0.000508173
0.000568118
0.000576166
0.000551038
0.00057436
0.000506856
0.00056673
0.000576083
0.000550956
0.000574276
0.000506778
0.000566644
0.000575638
0.000550509
0.000573823
0.000506352
0.00056619
0.000575606
0.000550478
0.00057379
0.000506322
0.000566157
0.000575462
0.000550333
0.000573643
0.000506185
0.00056601
0.000575452
0.000550323
0.000573633
0.000506175
0.000565999
0.000575419
0.00055029
0.000573599
0.000506143
0.000565965
0.000575419
0.00055029
0.000573599
0.000506143
0.000565965
0.000575452
0.000550323
0.000573633
0.000506175
0.000565999
0.000575462
0.000550333
0.000573643
0.000506185
0.00056601
0.000575606
0.000550478
0.00057379
0.000506322
0.000566157
0.000575638
0.000550509
0.000573823
0.000506352
0.00056619
0.000576083
0.000550956
0.000574276
0.000506778
0.000566644
0.000576166
0.000551038
0.00057436
0.000506856
0.00056673
0.000577531
0.000552418
0.000575743
0.000508173
0.000568118
0.000577706
0.000552592
0.000575919
0.000508337
0.000568296
0.000582297
0.00055731
0.000580544
0.000513005
0.000573064
0.000581612
0.000556883
0.00058024
0.0005129
0.000571143
0.000577103
0.000552252
0.000575702
0.00050832
0.000566456
0.00057693
0.00055208
0.000575528
0.000508158
0.00056628
0.000575567
0.000550703
0.000574148
0.000506843
0.000564895
0.000575485
0.000550622
0.000574064
0.000506765
0.000564811
0.000575039
0.000550174
0.00057361
0.000506339
0.000564356
0.000575007
0.000550142
0.000573577
0.000506309
0.000564323
0.000574862
0.000549998
0.00057343
0.00050617
0.000564175
0.000574852
0.000549987
0.000573419
0.000506161
0.000564164
0.000574819
0.000549954
0.000573385
0.000506129
0.00056413
0.000574819
0.000549954
0.000573385
0.000506129
0.00056413
0.000574852
0.000549987
0.000573419
0.000506161
0.000564164
0.000574862
0.000549998
0.00057343
0.00050617
0.000564175
0.000575007
0.000550142
0.000573577
0.000506309
0.000564323
0.000575039
0.000550174
0.00057361
0.000506339
0.000564356
0.000575485
0.000550622
0.000574064
0.000506765
0.000564811
0.000575567
0.000550703
0.000574148
0.000506843
0.000564895
0.00057693
0.00055208
0.000575528
0.000508158
0.00056628
0.000577103
0.000552252
0.000575702
0.00050832
0.000566456
0.000581612
0.000556883
0.00058024
0.0005129
0.000571143
0.000580944
0.000556467
0.000579943
0.000512721
0.000569215
0.000576515
0.000551921
0.00057549
0.000508228
0.000564607
0.000576345
0.000551751
0.000575318
0.000508068
0.000564434
0.000574984
0.000550377
0.000573941
0.000506755
0.000563053
0.000574902
0.000550296
0.000573857
0.000506678
0.000562969
0.000574455
0.000549847
0.000573402
0.000506251
0.000562513
0.000574423
0.000549816
0.00057337
0.000506221
0.00056248
0.000574278
0.000549671
0.000573222
0.000506082
0.000562332
0.000574268
0.00054966
0.000573211
0.000506072
0.000562321
0.000574234
0.000549627
0.000573177
0.00050604
0.000562287
0.000574234
0.000549627
0.000573177
0.00050604
0.000562287
0.000574268
0.00054966
0.000573211
0.000506072
0.000562321
0.000574278
0.000549671
0.000573222
0.000506082
0.000562332
0.000574423
0.000549816
0.00057337
0.000506221
0.00056248
0.000574455
0.000549847
0.000573402
0.000506251
0.000562513
0.000574902
0.000550296
0.000573857
0.000506678
0.000562969
0.000574984
0.000550377
0.000573941
0.000506755
0.000563053
0.000576345
0.000551751
0.000575318
0.000508068
0.000564434
0.000576515
0.000551921
0.00057549
0.000508227
0.000564607
0.000580944
0.000556467
0.000579943
0.000512721
0.000569215
0.000580293
0.000556061
0.000579654
0.00051247
0.000567294
0.000575942
0.000551598
0.000575283
0.000508061
0.000562763
0.000575774
0.00055143
0.000575114
0.000507904
0.000562592
0.000574416
0.000550059
0.00057374
0.000506594
0.000561216
0.000574335
0.000549979
0.000573657
0.000506518
0.000561132
0.000573886
0.00054953
0.000573201
0.00050609
0.000560676
0.000573855
0.000549498
0.000573169
0.00050606
0.000560643
0.000573709
0.000549352
0.00057302
0.00050592
0.000560494
0.000573699
0.000549342
0.00057301
0.000505911
0.000560483
0.000573665
0.000549308
0.000572975
0.000505878
0.000560449
0.000573665
0.000549308
0.000572975
0.000505878
0.000560449
0.000573699
0.000549342
0.00057301
0.000505911
0.000560483
0.000573709
0.000549352
0.00057302
0.00050592
0.000560494
0.000573855
0.000549498
0.000573169
0.00050606
0.000560643
0.000573886
0.00054953
0.000573201
0.00050609
0.000560676
0.000574335
0.000549979
0.000573657
0.000506518
0.000561132
0.000574416
0.000550059
0.00057374
0.000506594
0.000561216
0.000575774
0.00055143
0.000575114
0.000507904
0.000562592
0.000575942
0.000551598
0.000575283
0.000508061
0.000562763
0.000580293
0.000556061
0.000579654
0.00051247
0.000567294
0.000579659
0.000555666
0.000579375
0.000512147
0.000565395
0.000575385
0.000551284
0.000575086
0.000507821
0.000560939
0.000575219
0.000551119
0.000574919
0.000507666
0.000560771
0.000573864
0.000549751
0.000573548
0.00050636
0.000559399
0.000573783
0.000549671
0.000573466
0.000506284
0.000559316
0.000573334
0.000549221
0.000573009
0.000505856
0.000558859
0.000573303
0.00054919
0.000572977
0.000505826
0.000558826
0.000573156
0.000549044
0.000572827
0.000505686
0.000558677
0.000573146
0.000549033
0.000572817
0.000505677
0.000558666
0.000573112
0.000548999
0.000572782
0.000505644
0.000558632
0.000573112
0.000548999
0.000572782
0.000505644
0.000558632
0.000573146
0.000549033
0.000572817
0.000505677
0.000558666
0.000573156
0.000549044
0.000572827
0.000505686
0.000558677
0.000573303
0.00054919
0.000572977
0.000505826
0.000558826
0.000573334
0.000549221
0.000573009
0.000505856
0.000558859
0.000573783
0.000549671
0.000573466
0.000506284
0.000559316
0.000573864
0.000549751
0.000573548
0.00050636
0.000559399
0.000575219
0.000551119
0.000574919
0.000507666
0.000560771
0.000575385
0.000551284
0.000575086
0.000507821
0.000560939
0.000579659
0.000555666
0.000579375
0.000512147
0.000565395
0.000579043
0.000555282
0.000579108
0.000511753
0.000563437
0.000574843
0.000550979
0.000574897
0.000507509
0.000559055
0.000574679
0.000550817
0.000574733
0.000507356
0.00055889
0.000573327
0.000549453
0.000573365
0.000506054
0.000557522
0.000573247
0.000549374
0.000573284
0.000505979
0.00055744
0.000572797
0.000548923
0.000572827
0.000505551
0.000556983
0.000572766
0.000548892
0.000572794
0.000505521
0.00055695
0.000572619
0.000548745
0.000572644
0.000505381
0.0005568
0.000572609
0.000548735
0.000572634
0.000505371
0.00055679
0.000572574
0.000548701
0.000572599
0.000505338
0.000556755
0.000572574
0.000548701
0.000572599
0.000505338
0.000556755
0.000572609
0.000548735
0.000572634
0.000505371
0.00055679
0.000572619
0.000548745
0.000572644
0.000505381
0.0005568
0.000572766
0.000548892
0.000572794
0.000505521
0.00055695
0.000572797
0.000548923
0.000572827
0.000505551
0.000556983
0.000573247
0.000549374
0.000573284
0.000505979
0.00055744
0.000573327
0.000549453
0.000573365
0.000506054
0.000557522
0.000574679
0.000550817
0.000574733
0.000507356
0.00055889
0.000574843
0.000550979
0.000574897
0.000507509
0.000559055
0.000579043
0.000555282
0.000579108
0.000511753
0.000563437
-1.80096e-05
1.78598e-05
3.90809e-06
8.91579e-07
2.96675e-07
1.88838e-07
1.67221e-07
1.62867e-07
1.61896e-07
1.6168e-07
1.61619e-07
1.61595e-07
1.61498e-07
1.61389e-07
1.60525e-07
1.59859e-07
1.53424e-07
1.50653e-07
1.11921e-07
1.07815e-07
-1.81721e-05
1.78604e-05
3.95578e-06
9.04757e-07
2.99633e-07
1.89495e-07
1.67353e-07
1.62882e-07
1.61883e-07
1.6166e-07
1.61598e-07
1.61573e-07
1.61474e-07
1.61363e-07
1.60485e-07
1.5981e-07
1.53304e-07
1.50527e-07
1.11621e-07
1.07603e-07
-1.81726e-05
1.7856e-05
3.95519e-06
9.04823e-07
2.99674e-07
1.89509e-07
1.67357e-07
1.62883e-07
1.61883e-07
1.6166e-07
1.61598e-07
1.61572e-07
1.61474e-07
1.61363e-07
1.60484e-07
1.5981e-07
1.53302e-07
1.50525e-07
1.11618e-07
1.07602e-07
-1.81758e-05
1.78255e-05
3.94922e-06
9.04472e-07
2.9974e-07
1.89546e-07
1.67368e-07
1.62886e-07
1.61883e-07
1.61659e-07
1.61597e-07
1.61571e-07
1.61472e-07
1.61361e-07
1.60481e-07
1.59806e-07
1.53295e-07
1.50518e-07
1.11606e-07
1.07595e-07
-1.81756e-05
1.78231e-05
3.94857e-06
9.04389e-07
2.99731e-07
1.89546e-07
1.67368e-07
1.62886e-07
1.61883e-07
1.61659e-07
1.61597e-07
1.61571e-07
1.61472e-07
1.61361e-07
1.60481e-07
1.59806e-07
1.53295e-07
1.50518e-07
1.11606e-07
1.07595e-07
-1.81754e-05
1.78132e-05
3.94599e-06
9.0406e-07
2.99686e-07
1.89542e-07
1.67368e-07
1.62886e-07
1.61883e-07
1.61659e-07
1.61597e-07
1.61571e-07
1.61472e-07
1.61361e-07
1.60481e-07
1.59806e-07
1.53295e-07
1.50518e-07
1.11605e-07
1.07595e-07
-1.81753e-05
1.78123e-05
3.94575e-06
9.04028e-07
2.99681e-07
1.89541e-07
1.67368e-07
1.62886e-07
1.61883e-07
1.61659e-07
1.61597e-07
1.61571e-07
1.61472e-07
1.61361e-07
1.60481e-07
1.59806e-07
1.53295e-07
1.50518e-07
1.11605e-07
1.07595e-07
-1.81755e-05
1.78094e-05
3.94504e-06
9.03934e-07
2.99667e-07
1.89539e-07
1.67368e-07
1.62886e-07
1.61883e-07
1.61659e-07
1.61597e-07
1.61571e-07
1.61472e-07
1.61361e-07
1.60481e-07
1.59806e-07
1.53295e-07
1.50518e-07
1.11605e-07
1.07595e-07
-1.81755e-05
1.78091e-05
3.94498e-06
9.03926e-07
2.99666e-07
1.89539e-07
1.67368e-07
1.62886e-07
1.61883e-07
1.61659e-07
1.61597e-07
1.61571e-07
1.61472e-07
1.61361e-07
1.60481e-07
1.59806e-07
1.53295e-07
1.50518e-07
1.11605e-07
1.07595e-07
-1.81755e-05
1.78085e-05
3.94484e-06
9.03909e-07
2.99663e-07
1.89539e-07
1.67368e-07
1.62886e-07
1.61883e-07
1.61659e-07
1.61597e-07
1.61571e-07
1.61472e-07
1.61361e-07
1.60481e-07
1.59806e-07
1.53295e-07
1.50518e-07
1.11605e-07
1.07595e-07
-1.81755e-05
1.78085e-05
3.94484e-06
9.03909e-07
2.99663e-07
1.89539e-07
1.67368e-07
1.62886e-07
1.61883e-07
1.61659e-07
1.61597e-07
1.61571e-07
1.61472e-07
1.61361e-07
1.60481e-07
1.59806e-07
1.53295e-07
1.50518e-07
1.11605e-07
1.07595e-07
-1.81755e-05
1.78091e-05
3.94498e-06
9.03926e-07
2.99666e-07
1.89539e-07
1.67368e-07
1.62886e-07
1.61883e-07
1.61659e-07
1.61597e-07
1.61571e-07
1.61472e-07
1.61361e-07
1.60481e-07
1.59806e-07
1.53295e-07
1.50518e-07
1.11605e-07
1.07595e-07
-1.81755e-05
1.78094e-05
3.94504e-06
9.03934e-07
2.99667e-07
1.89539e-07
1.67368e-07
1.62886e-07
1.61883e-07
1.61659e-07
1.61597e-07
1.61571e-07
1.61472e-07
1.61361e-07
1.60481e-07
1.59806e-07
1.53295e-07
1.50518e-07
1.11605e-07
1.07595e-07
-1.81753e-05
1.78123e-05
3.94575e-06
9.04028e-07
2.99681e-07
1.89541e-07
1.67368e-07
1.62886e-07
1.61883e-07
1.61659e-07
1.61597e-07
1.61571e-07
1.61472e-07
1.61361e-07
1.60481e-07
1.59806e-07
1.53295e-07
1.50518e-07
1.11605e-07
1.07595e-07
-1.81754e-05
1.78132e-05
3.94599e-06
9.0406e-07
2.99686e-07
1.89542e-07
1.67368e-07
1.62886e-07
1.61883e-07
1.61659e-07
1.61597e-07
1.61571e-07
1.61472e-07
1.61361e-07
1.60481e-07
1.59806e-07
1.53295e-07
1.50518e-07
1.11605e-07
1.07595e-07
-1.81756e-05
1.78231e-05
3.94857e-06
9.04389e-07
2.99731e-07
1.89546e-07
1.67368e-07
1.62886e-07
1.61883e-07
1.61659e-07
1.61597e-07
1.61571e-07
1.61472e-07
1.61361e-07
1.60481e-07
1.59806e-07
1.53295e-07
1.50518e-07
1.11606e-07
1.07595e-07
-1.81758e-05
1.78255e-05
3.94922e-06
9.04472e-07
2.9974e-07
1.89546e-07
1.67368e-07
1.62886e-07
1.61883e-07
1.61659e-07
1.61597e-07
1.61571e-07
1.61472e-07
1.61361e-07
1.60481e-07
1.59806e-07
1.53295e-07
1.50518e-07
1.11606e-07
1.07595e-07
-1.81726e-05
1.7856e-05
3.95519e-06
9.04823e-07
2.99674e-07
1.89509e-07
1.67357e-07
1.62883e-07
1.61883e-07
1.6166e-07
1.61598e-07
1.61572e-07
1.61474e-07
1.61363e-07
1.60484e-07
1.5981e-07
1.53302e-07
1.50525e-07
1.11618e-07
1.07602e-07
-1.81721e-05
1.78604e-05
3.95578e-06
9.04757e-07
2.99633e-07
1.89495e-07
1.67353e-07
1.62882e-07
1.61883e-07
1.6166e-07
1.61598e-07
1.61573e-07
1.61474e-07
1.61363e-07
1.60485e-07
1.5981e-07
1.53304e-07
1.50527e-07
1.11621e-07
1.07603e-07
-1.80096e-05
1.78598e-05
3.90809e-06
8.91579e-07
2.96675e-07
1.88838e-07
1.67221e-07
1.62867e-07
1.61896e-07
1.6168e-07
1.61619e-07
1.61595e-07
1.61498e-07
1.61389e-07
1.60525e-07
1.59859e-07
1.53424e-07
1.50653e-07
1.11921e-07
1.07815e-07
-1.76792e-05
1.80535e-05
3.94422e-06
8.98908e-07
2.98123e-07
1.89134e-07
1.67284e-07
1.62936e-07
1.61988e-07
1.61768e-07
1.61707e-07
1.61682e-07
1.61584e-07
1.61474e-07
1.60571e-07
1.59841e-07
1.53342e-07
1.50546e-07
1.11326e-07
1.07192e-07
-1.78339e-05
1.80546e-05
3.99242e-06
9.12225e-07
3.01115e-07
1.89798e-07
1.67418e-07
1.62949e-07
1.61975e-07
1.61749e-07
1.61686e-07
1.61661e-07
1.6156e-07
1.61448e-07
1.60529e-07
1.59792e-07
1.53221e-07
1.50418e-07
1.11022e-07
1.06975e-07
-1.78342e-05
1.80501e-05
3.99182e-06
9.12291e-07
3.01157e-07
1.89813e-07
1.67422e-07
1.62949e-07
1.61975e-07
1.61749e-07
1.61686e-07
1.6166e-07
1.6156e-07
1.61447e-07
1.60528e-07
1.59791e-07
1.53219e-07
1.50416e-07
1.11019e-07
1.06974e-07
-1.78361e-05
1.80194e-05
3.9858e-06