/*--------------------------------*- C++ -*----------------------------------*\
  =========                 |
  \\      /  F ield         | OpenFOAM: The Open Source CFD Toolbox
   \\    /   O peration     | Website:  https://openfoam.org
    \\  /    A nd           | Version:  8
     \\/     M anipulation  |
\*---------------------------------------------------------------------------*/
FoamFile
{
    version     2.0;
    format      ascii;
    class       volScalarField;
    location    "4.5";
    object      p;
}
// * * * * * * * * * * * * * * * * * * * * * * * * * * * * * * * * * * * * * //

dimensions      [0 2 -2 0 0 0 0];

internalField   nonuniform List<scalar> 
180000
(
0.000903209
0.000842198
0.000880552
0.000750159
0.000819207
0.000888634
0.000827855
0.000865926
0.000736865
0.000804764
0.000887782
0.000827042
0.000865073
0.000736153
0.000803961
0.000883437
0.000822865
0.000860712
0.000732469
0.00079987
0.000882831
0.000822288
0.000860102
0.000731964
0.000799298
0.000880813
0.000820361
0.000858071
0.000730273
0.000797397
0.000880467
0.000820032
0.000857721
0.000729983
0.000797069
0.000879537
0.000819145
0.000856784
0.000729205
0.00079619
0.000879387
0.000819003
0.000856633
0.000729079
0.000796048
0.000879117
0.000818745
0.00085636
0.000728853
0.000795792
0.000879117
0.000818745
0.00085636
0.000728853
0.000795792
0.000879387
0.000819003
0.000856633
0.000729079
0.000796048
0.000879537
0.000819145
0.000856784
0.000729205
0.00079619
0.000880467
0.000820032
0.000857721
0.000729983
0.000797069
0.000880813
0.000820361
0.000858071
0.000730273
0.000797397
0.000882831
0.000822288
0.000860102
0.000731964
0.000799298
0.000883437
0.000822865
0.000860712
0.000732469
0.00079987
0.000887782
0.000827042
0.000865073
0.000736153
0.000803961
0.000888634
0.000827855
0.000865926
0.000736865
0.000804764
0.000903209
0.000842198
0.000880552
0.000750159
0.000819207
0.000735945
0.000707836
0.000726443
0.00065757
0.000696725
0.000729623
0.000700716
0.000719757
0.000649784
0.000689216
0.000729245
0.000700304
0.000719359
0.00064936
0.00068879
0.000727276
0.000698148
0.000717279
0.000647129
0.000686581
0.000727001
0.00069785
0.000716988
0.000646823
0.000686273
0.000726078
0.000696849
0.000716012
0.000645794
0.00068524
0.00072592
0.000696678
0.000715844
0.000645618
0.000685061
0.000725493
0.000696215
0.000715391
0.000645143
0.000684582
0.000725425
0.000696141
0.000715318
0.000645067
0.000684505
0.0007253
0.000696006
0.000715186
0.000644928
0.000684365
0.0007253
0.000696006
0.000715186
0.000644928
0.000684365
0.000725425
0.000696141
0.000715318
0.000645067
0.000684505
0.000725493
0.000696215
0.000715391
0.000645143
0.000684582
0.00072592
0.000696678
0.000715844
0.000645618
0.000685061
0.000726078
0.000696849
0.000716012
0.000645794
0.00068524
0.000727001
0.00069785
0.000716988
0.000646823
0.000686273
0.000727276
0.000698148
0.000717279
0.000647129
0.000686581
0.000729245
0.000700304
0.000719359
0.00064936
0.00068879
0.000729623
0.000700716
0.000719757
0.000649784
0.000689216
0.000735945
0.000707836
0.000726443
0.00065757
0.000696725
0.000528406
0.000506032
0.000521292
0.000467378
0.00050036
0.000523314
0.000500576
0.000516019
0.000461713
0.000494674
0.00052301
0.000500259
0.000515704
0.000461402
0.00049435
0.000521394
0.000498571
0.000514031
0.000459735
0.000492634
0.000521171
0.000498341
0.0005138
0.000459509
0.000492397
0.000520416
0.000497558
0.000513016
0.000458741
0.000491596
0.000520288
0.000497425
0.000512882
0.00045861
0.000491459
0.000519938
0.000497064
0.000512519
0.000458256
0.000491087
0.000519883
0.000497007
0.000512461
0.000458199
0.000491028
0.000519781
0.000496901
0.000512355
0.000458096
0.000490919
0.000519781
0.000496901
0.000512355
0.000458096
0.000490919
0.000519883
0.000497007
0.000512461
0.000458199
0.000491028
0.000519938
0.000497064
0.000512519
0.000458256
0.000491087
0.000520288
0.000497425
0.000512882
0.00045861
0.000491459
0.000520416
0.000497558
0.000513016
0.000458741
0.000491596
0.000521171
0.000498341
0.0005138
0.000459509
0.000492397
0.000521394
0.000498571
0.000514031
0.000459735
0.000492634
0.00052301
0.000500259
0.000515704
0.000461402
0.00049435
0.000523314
0.000500576
0.000516019
0.000461713
0.000494674
0.000528406
0.000506032
0.000521292
0.000467378
0.00050036
0.000494068
0.000467859
0.000485832
0.000425077
0.000464431
0.000487982
0.000461695
0.000479667
0.000419118
0.000458138
0.000487617
0.000461336
0.000479298
0.000418789
0.000457776
0.000485681
0.000459418
0.000477335
0.000417014
0.000455856
0.000485416
0.000459157
0.000477065
0.000416775
0.000455592
0.000484513
0.000458269
0.000476147
0.000415957
0.000454697
0.000484361
0.00045812
0.000475991
0.000415819
0.000454544
0.000483945
0.00045771
0.000475567
0.000415442
0.00045413
0.000483878
0.000457646
0.0004755
0.000415383
0.000454063
0.000483757
0.000457527
0.000475376
0.000415273
0.000453943
0.000483757
0.000457527
0.000475376
0.000415273
0.000453943
0.000483878
0.000457646
0.0004755
0.000415383
0.000454063
0.000483945
0.00045771
0.000475567
0.000415442
0.00045413
0.000484361
0.00045812
0.000475991
0.000415819
0.000454544
0.000484513
0.000458269
0.000476147
0.000415957
0.000454697
0.000485416
0.000459157
0.000477065
0.000416775
0.000455592
0.000485681
0.000459418
0.000477335
0.000417014
0.000455856
0.000487617
0.000461336
0.000479298
0.000418789
0.000457776
0.000487982
0.000461695
0.000479667
0.000419118
0.000458138
0.000494068
0.000467859
0.000485832
0.000425077
0.000464431
0.000517125
0.000489418
0.000508766
0.000443846
0.000488798
0.000510714
0.000482922
0.00050227
0.000437575
0.000482188
0.000510324
0.000482539
0.000501877
0.000437225
0.000481802
0.000508254
0.000480486
0.000499777
0.000435327
0.000479746
0.00050797
0.000480208
0.000499488
0.000435071
0.000479463
0.000507005
0.000479257
0.000498506
0.000434197
0.000478504
0.000506841
0.000479097
0.00049834
0.00043405
0.00047834
0.000506396
0.000478659
0.000497886
0.000433647
0.000477897
0.000506325
0.00047859
0.000497813
0.000433583
0.000477826
0.000506195
0.000478462
0.000497681
0.000433465
0.000477696
0.000506195
0.000478462
0.000497681
0.000433465
0.000477696
0.000506325
0.00047859
0.000497813
0.000433583
0.000477826
0.000506396
0.000478659
0.000497886
0.000433647
0.000477897
0.000506841
0.000479097
0.00049834
0.00043405
0.00047834
0.000507005
0.000479257
0.000498506
0.000434197
0.000478504
0.00050797
0.000480208
0.000499488
0.000435071
0.000479463
0.000508254
0.000480486
0.000499777
0.000435327
0.000479746
0.000510324
0.000482539
0.000501877
0.000437225
0.000481802
0.000510714
0.000482922
0.00050227
0.000437575
0.000482188
0.000517125
0.000489418
0.000508766
0.000443846
0.000488798
0.000529908
0.000502782
0.000522212
0.000457379
0.000505941
0.000523682
0.000496427
0.000515889
0.000451184
0.000499476
0.0005233
0.000496048
0.000515501
0.000450833
0.000499091
0.000521247
0.000493999
0.000513414
0.00044892
0.00049703
0.000520966
0.000493721
0.000513128
0.000448663
0.000496747
0.000520008
0.000492771
0.000512151
0.00044778
0.000495784
0.000519846
0.000492612
0.000511985
0.000447632
0.00049562
0.000519404
0.000492174
0.000511533
0.000447225
0.000495174
0.000519334
0.000492105
0.000511462
0.000447161
0.000495103
0.000519205
0.000491977
0.00051133
0.000447042
0.000494973
0.000519205
0.000491977
0.00051133
0.000447042
0.000494973
0.000519334
0.000492105
0.000511462
0.000447161
0.000495103
0.000519404
0.000492174
0.000511533
0.000447225
0.000495174
0.000519846
0.000492612
0.000511985
0.000447632
0.00049562
0.000520008
0.000492771
0.000512151
0.00044778
0.000495784
0.000520966
0.000493721
0.000513128
0.000448663
0.000496747
0.000521247
0.000493999
0.000513414
0.00044892
0.00049703
0.0005233
0.000496048
0.000515501
0.000450833
0.000499091
0.000523682
0.000496427
0.000515889
0.000451184
0.000499476
0.000529908
0.000502782
0.000522212
0.000457379
0.000505941
0.000529823
0.000503448
0.000522831
0.000458876
0.00051072
0.000523811
0.0004973
0.000516722
0.000452863
0.000504472
0.000523438
0.000496929
0.000516344
0.000452519
0.000504095
0.000521415
0.000494906
0.000514287
0.000450622
0.000502051
0.00052114
0.000494633
0.000514005
0.000450368
0.000501772
0.000520194
0.000493694
0.000513041
0.000449492
0.000500816
0.000520035
0.000493537
0.000512878
0.000449346
0.000500654
0.000519599
0.000493105
0.000512432
0.000448942
0.000500212
0.00051953
0.000493037
0.000512362
0.000448878
0.000500142
0.000519403
0.000492911
0.000512232
0.000448761
0.000500013
0.000519403
0.000492911
0.000512232
0.000448761
0.000500013
0.00051953
0.000493037
0.000512362
0.000448878
0.000500142
0.000519599
0.000493105
0.000512432
0.000448942
0.000500212
0.000520035
0.000493537
0.000512878
0.000449346
0.000500654
0.000520194
0.000493694
0.000513041
0.000449492
0.000500816
0.00052114
0.000494633
0.000514005
0.000450368
0.000501772
0.000521415
0.000494906
0.000514287
0.000450622
0.000502051
0.000523438
0.000496929
0.000516344
0.000452519
0.000504095
0.000523811
0.0004973
0.000516722
0.000452863
0.000504472
0.000529823
0.000503448
0.000522831
0.000458876
0.00051072
0.000527194
0.000501233
0.000520762
0.000457225
0.000512404
0.000521308
0.000495224
0.000514788
0.000451354
0.000506306
0.000520939
0.000494857
0.000514413
0.000451014
0.000505932
0.000518923
0.000492843
0.000512364
0.000449126
0.000503892
0.000518649
0.000492572
0.000512085
0.000448874
0.000503613
0.000517706
0.000491637
0.000511123
0.000448
0.000502658
0.000517548
0.000491481
0.000510962
0.000447855
0.000502497
0.000517112
0.000491049
0.000510517
0.000447452
0.000502054
0.000517044
0.000490982
0.000510447
0.000447389
0.000501984
0.000516917
0.000490856
0.000510317
0.000447271
0.000501855
0.000516917
0.000490856
0.000510317
0.000447271
0.000501855
0.000517044
0.000490982
0.000510447
0.000447389
0.000501984
0.000517112
0.000491049
0.000510517
0.000447452
0.000502054
0.000517548
0.000491481
0.000510962
0.000447855
0.000502497
0.000517706
0.000491637
0.000511123
0.000448
0.000502658
0.000518649
0.000492572
0.000512085
0.000448874
0.000503613
0.000518923
0.000492843
0.000512364
0.000449126
0.000503892
0.000520939
0.000494857
0.000514413
0.000451014
0.000505932
0.000521308
0.000495224
0.000514788
0.000451354
0.000506306
0.000527194
0.000501233
0.000520762
0.000457225
0.000512404
0.000525954
0.000500262
0.000520018
0.000456669
0.00051483
0.000520161
0.000494356
0.000514143
0.000450907
0.000508842
0.000519794
0.000493993
0.000513771
0.000450569
0.000508469
0.000517775
0.000491978
0.00051172
0.00044868
0.000506423
0.000517502
0.000491708
0.000511442
0.000448429
0.000506144
0.000516556
0.000490771
0.000510478
0.000447554
0.000505185
0.000516398
0.000490615
0.000510317
0.000447409
0.000505024
0.000515961
0.000490183
0.000509871
0.000447005
0.000504579
0.000515893
0.000490115
0.000509801
0.000446942
0.000504509
0.000515766
0.00048999
0.000509671
0.000446825
0.00050438
0.000515766
0.00048999
0.000509671
0.000446825
0.00050438
0.000515893
0.000490115
0.000509801
0.000446942
0.000504509
0.000515961
0.000490183
0.000509871
0.000447005
0.000504579
0.000516398
0.000490615
0.000510317
0.000447409
0.000505024
0.000516556
0.000490771
0.000510478
0.000447554
0.000505185
0.000517502
0.000491708
0.000511442
0.000448429
0.000506144
0.000517775
0.000491978
0.00051172
0.00044868
0.000506423
0.000519794
0.000493993
0.000513771
0.000450569
0.000508469
0.000520161
0.000494356
0.000514143
0.000450907
0.000508842
0.000525954
0.000500262
0.000520018
0.000456669
0.00051483
0.000525652
0.000500232
0.000520201
0.000457108
0.000517548
0.000519954
0.000494429
0.000514427
0.000451447
0.000511655
0.000519589
0.000494068
0.000514058
0.000451112
0.000511285
0.000517569
0.000492053
0.000512007
0.000449222
0.000509232
0.000517296
0.000491784
0.000511729
0.000448971
0.000508954
0.000516349
0.000490845
0.000510764
0.000448094
0.000507991
0.000516191
0.00049069
0.000510603
0.000447949
0.000507829
0.000515754
0.000490257
0.000510156
0.000447544
0.000507383
0.000515685
0.00049019
0.000510086
0.000447481
0.000507312
0.000515558
0.000490064
0.000509956
0.000447364
0.000507182
0.000515558
0.000490064
0.000509956
0.000447364
0.000507182
0.000515685
0.00049019
0.000510086
0.000447481
0.000507312
0.000515754
0.000490257
0.000510156
0.000447544
0.000507383
0.000516191
0.00049069
0.000510603
0.000447949
0.000507829
0.000516349
0.000490845
0.000510764
0.000448094
0.000507991
0.000517296
0.000491784
0.000511729
0.000448971
0.000508954
0.000517569
0.000492053
0.000512007
0.000449222
0.000509232
0.000519589
0.000494068
0.000514058
0.000451112
0.000511285
0.000519954
0.000494429
0.000514427
0.000451447
0.000511655
0.000525652
0.000500232
0.000520201
0.000457108
0.000517548
0.000525444
0.000500315
0.000520473
0.000457748
0.000519413
0.000519847
0.000494618
0.000514804
0.000452189
0.000513604
0.000519484
0.00049426
0.000514438
0.000451856
0.000513235
0.000517466
0.000492248
0.000512389
0.000449966
0.000511177
0.000517194
0.00049198
0.000512112
0.000449715
0.000510899
0.000516246
0.000491041
0.000511147
0.000448837
0.000509932
0.000516089
0.000490886
0.000510986
0.000448692
0.00050977
0.000515651
0.000490453
0.000510539
0.000448287
0.000509322
0.000515582
0.000490386
0.000510469
0.000448224
0.000509252
0.000515455
0.000490259
0.000510339
0.000448106
0.000509121
0.000515455
0.000490259
0.000510339
0.000448106
0.000509121
0.000515582
0.000490386
0.000510469
0.000448224
0.000509252
0.000515651
0.000490453
0.000510539
0.000448287
0.000509322
0.000516089
0.000490886
0.000510986
0.000448692
0.00050977
0.000516246
0.000491041
0.000511147
0.000448837
0.000509932
0.000517194
0.00049198
0.000512112
0.000449715
0.000510899
0.000517466
0.000492248
0.000512389
0.000449966
0.000511177
0.000519484
0.00049426
0.000514438
0.000451856
0.000513235
0.000519847
0.000494618
0.000514804
0.000452189
0.000513604
0.000525444
0.000500315
0.000520473
0.000457748
0.000519413
0.000525122
0.00050028
0.000520614
0.000458285
0.000518212
0.000519624
0.000494689
0.00051505
0.000452828
0.000512502
0.000519265
0.000494334
0.000514687
0.000452497
0.000512136
0.000517249
0.000492325
0.000512641
0.000450607
0.000510081
0.000516978
0.000492057
0.000512365
0.000450358
0.000509804
0.000516029
0.000491119
0.000511399
0.000449478
0.000508837
0.000515873
0.000490964
0.000511239
0.000449334
0.000508676
0.000515434
0.000490531
0.000510792
0.000448928
0.000508227
0.000515366
0.000490464
0.000510723
0.000448865
0.000508157
0.000515238
0.000490338
0.000510592
0.000448747
0.000508026
0.000515238
0.000490338
0.000510592
0.000448747
0.000508026
0.000515366
0.000490464
0.000510723
0.000448865
0.000508157
0.000515434
0.000490531
0.000510792
0.000448928
0.000508227
0.000515873
0.000490964
0.000511239
0.000449334
0.000508676
0.000516029
0.000491119
0.000511399
0.000449478
0.000508837
0.000516978
0.000492057
0.000512365
0.000450358
0.000509804
0.000517249
0.000492325
0.000512641
0.000450607
0.000510081
0.000519265
0.000494334
0.000514687
0.000452497
0.000512136
0.000519624
0.000494689
0.00051505
0.000452828
0.000512502
0.000525122
0.00050028
0.000520614
0.000458285
0.000518212
0.000524761
0.000500194
0.000520697
0.000458692
0.000516137
0.00051936
0.000494705
0.000515235
0.000453334
0.00051053
0.000519003
0.000494353
0.000514874
0.000453006
0.000510167
0.00051699
0.000492347
0.000512832
0.000451118
0.000508119
0.00051672
0.000492081
0.000512557
0.000450869
0.000507843
0.000515771
0.000491142
0.000511591
0.000449989
0.000506877
0.000515615
0.000490988
0.000511431
0.000449844
0.000506717
0.000515176
0.000490554
0.000510984
0.000449438
0.000506269
0.000515108
0.000490488
0.000510915
0.000449375
0.000506199
0.00051498
0.000490361
0.000510784
0.000449257
0.000506068
0.00051498
0.000490361
0.000510784
0.000449257
0.000506068
0.000515108
0.000490488
0.000510915
0.000449375
0.000506199
0.000515176
0.000490554
0.000510984
0.000449438
0.000506269
0.000515615
0.000490988
0.000511431
0.000449844
0.000506717
0.000515771
0.000491142
0.000511591
0.000449989
0.000506877
0.00051672
0.000492081
0.000512557
0.000450869
0.000507843
0.00051699
0.000492347
0.000512832
0.000451118
0.000508119
0.000519003
0.000494353
0.000514874
0.000453006
0.000510167
0.00051936
0.000494705
0.000515235
0.000453334
0.00051053
0.000524761
0.000500194
0.000520697
0.000458692
0.000516137
0.000524423
0.000500119
0.000520786
0.000459016
0.000514323
0.000519117
0.00049473
0.000515422
0.000453757
0.000508815
0.000518763
0.00049438
0.000515065
0.000453431
0.000508456
0.000516752
0.000492378
0.000513025
0.000451544
0.000506414
0.000516483
0.000492113
0.000512752
0.000451296
0.000506139
0.000515534
0.000491174
0.000511786
0.000450415
0.000505174
0.000515378
0.00049102
0.000511627
0.000450271
0.000505015
0.000514939
0.000490587
0.000511179
0.000449864
0.000504567
0.000514871
0.00049052
0.00051111
0.000449802
0.000504497
0.000514743
0.000490394
0.000510979
0.000449683
0.000504367
0.000514743
0.000490394
0.000510979
0.000449683
0.000504367
0.000514871
0.00049052
0.00051111
0.000449802
0.000504497
0.000514939
0.000490587
0.000511179
0.000449864
0.000504567
0.000515378
0.00049102
0.000511627
0.000450271
0.000505015
0.000515534
0.000491174
0.000511786
0.000450415
0.000505174
0.000516483
0.000492113
0.000512752
0.000451296
0.000506139
0.000516752
0.000492378
0.000513025
0.000451544
0.000506414
0.000518763
0.00049438
0.000515065
0.000453431
0.000508456
0.000519117
0.00049473
0.000515422
0.000453757
0.000508815
0.000524423
0.000500119
0.000520786
0.000459016
0.000514323
0.000524117
0.000500066
0.000520891
0.00045928
0.000512771
0.000518903
0.000494774
0.000515624
0.000454117
0.00050736
0.000518551
0.000494427
0.000515269
0.000453794
0.000507004
0.000516543
0.000492428
0.000513234
0.00045191
0.000504968
0.000516275
0.000492164
0.000512961
0.000451662
0.000504694
0.000515325
0.000491225
0.000511995
0.000450781
0.00050373
0.00051517
0.000491072
0.000511836
0.000450637
0.000503571
0.000514731
0.000490638
0.000511388
0.00045023
0.000503124
0.000514663
0.000490572
0.000511319
0.000450167
0.000503054
0.000514535
0.000490446
0.000511189
0.000450049
0.000502924
0.000514535
0.000490446
0.000511189
0.000450049
0.000502924
0.000514663
0.000490572
0.000511319
0.000450167
0.000503054
0.000514731
0.000490638
0.000511388
0.00045023
0.000503124
0.00051517
0.000491072
0.000511836
0.000450637
0.000503571
0.000515325
0.000491225
0.000511995
0.000450781
0.00050373
0.000516275
0.000492164
0.000512961
0.000451662
0.000504694
0.000516543
0.000492428
0.000513234
0.00045191
0.000504968
0.000518551
0.000494427
0.000515269
0.000453794
0.000507004
0.000518903
0.000494774
0.000515624
0.000454117
0.00050736
0.000524117
0.000500066
0.000520891
0.00045928
0.000512771
0.000523833
0.000500026
0.000521006
0.000459484
0.000511283
0.000518709
0.000494829
0.000515834
0.000454416
0.000505965
0.000518359
0.000494485
0.000515482
0.000454095
0.000505612
0.000516355
0.000492491
0.00051345
0.000452214
0.000503583
0.000516088
0.000492227
0.000513178
0.000451967
0.00050331
0.000515138
0.000491288
0.000512212
0.000451086
0.000502347
0.000514983
0.000491136
0.000512054
0.000450942
0.000502188
0.000514543
0.000490702
0.000511606
0.000450535
0.000501741
0.000514476
0.000490636
0.000511537
0.000450472
0.000501672
0.000514348
0.00049051
0.000511406
0.000450354
0.000501542
0.000514348
0.00049051
0.000511406
0.000450354
0.000501542
0.000514476
0.000490636
0.000511537
0.000450472
0.000501672
0.000514543
0.000490702
0.000511606
0.000450535
0.000501741
0.000514983
0.000491136
0.000512054
0.000450942
0.000502188
0.000515138
0.000491288
0.000512212
0.000451086
0.000502347
0.000516088
0.000492227
0.000513178
0.000451967
0.00050331
0.000516355
0.000492491
0.00051345
0.000452214
0.000503583
0.000518359
0.000494485
0.000515482
0.000454095
0.000505612
0.000518709
0.000494829
0.000515834
0.000454416
0.000505965
0.000523833
0.000500026
0.000521006
0.000459484
0.000511283
0.000523566
0.000499996
0.000521128
0.000459625
0.000509789
0.00051853
0.000494892
0.000516048
0.00045465
0.000504562
0.000518184
0.000494551
0.000515698
0.000454332
0.000504212
0.000516183
0.00049256
0.000513671
0.000452454
0.000502189
0.000515917
0.000492298
0.0005134
0.000452209
0.000501918
0.000514967
0.000491359
0.000512434
0.000451327
0.000500956
0.000514812
0.000491207
0.000512277
0.000451184
0.000500798
0.000514372
0.000490773
0.000511828
0.000450776
0.000500351
0.000514305
0.000490708
0.00051176
0.000450714
0.000500282
0.000514177
0.000490581
0.000511629
0.000450595
0.000500152
0.000514177
0.000490581
0.000511629
0.000450595
0.000500152
0.000514305
0.000490708
0.00051176
0.000450714
0.000500282
0.000514372
0.000490773
0.000511828
0.000450776
0.000500351
0.000514812
0.000491207
0.000512277
0.000451184
0.000500798
0.000514967
0.000491359
0.000512434
0.000451327
0.000500956
0.000515917
0.000492298
0.0005134
0.000452209
0.000501918
0.000516183
0.00049256
0.000513671
0.000452454
0.000502189
0.000518184
0.000494551
0.000515698
0.000454332
0.000504212
0.00051853
0.000494892
0.000516048
0.00045465
0.000504562
0.000523566
0.000499996
0.000521128
0.000459625
0.000509789
0.000523317
0.000499976
0.000521257
0.000459704
0.0005083
0.000518367
0.000494962
0.000516268
0.00045482
0.000503162
0.000518023
0.000494624
0.000515921
0.000454504
0.000502815
0.000516027
0.000492637
0.000513898
0.000452632
0.000500799
0.000515761
0.000492376
0.000513628
0.000452387
0.000500529
0.000514811
0.000491438
0.000512662
0.000451505
0.000499568
0.000514657
0.000491286
0.000512505
0.000451363
0.00049941
0.000514217
0.000490852
0.000512057
0.000450955
0.000498964
0.00051415
0.000490786
0.000511988
0.000450893
0.000498895
0.000514022
0.00049066
0.000511857
0.000450774
0.000498765
0.000514022
0.00049066
0.000511857
0.000450774
0.000498765
0.00051415
0.000490786
0.000511988
0.000450893
0.000498895
0.000514217
0.000490852
0.000512057
0.000450955
0.000498964
0.000514657
0.000491286
0.000512505
0.000451363
0.00049941
0.000514811
0.000491438
0.000512662
0.000451505
0.000499568
0.000515761
0.000492376
0.000513628
0.000452387
0.000500529
0.000516027
0.000492637
0.000513898
0.000452632
0.000500799
0.000518023
0.000494624
0.000515921
0.000454504
0.000502815
0.000518367
0.000494962
0.000516268
0.00045482
0.000503162
0.000523317
0.000499976
0.000521257
0.000459704
0.0005083
0.000523086
0.000499965
0.000521396
0.000459721
0.000506829
0.00051822
0.00049504
0.000516495
0.000454928
0.000501778
0.000517878
0.000494704
0.00051615
0.000454614
0.000501434
0.000515886
0.000492723
0.000514132
0.000452746
0.000499425
0.000515622
0.000492463
0.000513864
0.000452503
0.000499157
0.000514671
0.000491524
0.000512898
0.000451621
0.000498196
0.000514518
0.000491373
0.000512741
0.000451479
0.00049804
0.000514077
0.000490939
0.000512293
0.000451071
0.000497593
0.000514011
0.000490873
0.000512224
0.00045101
0.000497525
0.000513883
0.000490747
0.000512094
0.000450891
0.000497394
0.000513883
0.000490747
0.000512094
0.000450891
0.000497394
0.000514011
0.000490873
0.000512224
0.00045101
0.000497525
0.000514077
0.000490939
0.000512293
0.000451071
0.000497593
0.000514518
0.000491373
0.000512741
0.000451479
0.00049804
0.000514671
0.000491524
0.000512898
0.000451621
0.000498196
0.000515622
0.000492463
0.000513864
0.000452503
0.000499157
0.000515886
0.000492723
0.000514132
0.000452746
0.000499425
0.000517878
0.000494704
0.00051615
0.000454614
0.000501434
0.00051822
0.00049504
0.000516495
0.000454928
0.000501778
0.000523086
0.000499965
0.000521396
0.000459721
0.000506829
0.000522871
0.000499965
0.000521545
0.000459677
0.000505312
0.000518088
0.000495127
0.000516731
0.000454973
0.000500346
0.000517749
0.000494793
0.000516389
0.000454662
0.000500004
0.000515761
0.000492816
0.000514376
0.000452799
0.000498003
0.000515498
0.000492557
0.000514108
0.000452557
0.000497737
0.000514548
0.000491619
0.000513143
0.000451675
0.000496777
0.000514395
0.000491468
0.000512987
0.000451534
0.000496621
0.000513954
0.000491034
0.000512538
0.000451126
0.000496175
0.000513888
0.000490969
0.00051247
0.000451065
0.000496107
0.000513759
0.000490842
0.000512339
0.000450946
0.000495977
0.000513759
0.000490842
0.000512339
0.000450946
0.000495977
0.000513888
0.000490969
0.00051247
0.000451065
0.000496107
0.000513954
0.000491034
0.000512538
0.000451126
0.000496175
0.000514395
0.000491468
0.000512987
0.000451534
0.000496621
0.000514548
0.000491619
0.000513143
0.000451675
0.000496777
0.000515498
0.000492557
0.000514108
0.000452557
0.000497736
0.000515761
0.000492816
0.000514376
0.000452799
0.000498003
0.000517749
0.000494793
0.000516389
0.000454662
0.000500004
0.000518088
0.000495127
0.000516731
0.000454973
0.000500346
0.000522871
0.000499965
0.000521545
0.000459677
0.000505312
-1.62546e-05
1.58001e-05
2.82144e-06
6.97395e-07
2.51013e-07
1.80711e-07
1.65291e-07
1.62493e-07
1.61806e-07
1.61662e-07
1.61615e-07
1.61593e-07
1.61495e-07
1.61386e-07
1.60519e-07
1.59851e-07
1.53415e-07
1.50644e-07
1.11916e-07
1.07812e-07
-1.63236e-05
1.57606e-05
2.83581e-06
7.02364e-07
2.52232e-07
1.81011e-07
1.65343e-07
1.62492e-07
1.61789e-07
1.61642e-07
1.61593e-07
1.61571e-07
1.61471e-07
1.61359e-07
1.60478e-07
1.59803e-07
1.53295e-07
1.50518e-07
1.11616e-07
1.076e-07
-1.63169e-05
1.575e-05
2.83248e-06
7.01907e-07
2.52141e-07
1.80999e-07
1.6534e-07
1.62491e-07
1.61789e-07
1.61641e-07
1.61593e-07
1.61571e-07
1.61471e-07
1.61359e-07
1.60477e-07
1.59802e-07
1.53293e-07
1.50516e-07
1.11613e-07
1.07598e-07
-1.62871e-05
1.56971e-05
2.81601e-06
6.99701e-07
2.51709e-07
1.80942e-07
1.65328e-07
1.62489e-07
1.61787e-07
1.6164e-07
1.61592e-07
1.61569e-07
1.61469e-07
1.61357e-07
1.60475e-07
1.59799e-07
1.53286e-07
1.50509e-07
1.11601e-07
1.07592e-07
-1.62814e-05
1.56887e-05
2.81303e-06
6.99234e-07
2.51603e-07
1.80924e-07
1.65323e-07
1.62488e-07
1.61787e-07
1.6164e-07
1.61592e-07
1.61569e-07
1.61469e-07
1.61357e-07
1.60475e-07
1.59799e-07
1.53286e-07
1.50509e-07
1.11601e-07
1.07591e-07
-1.62643e-05
1.56627e-05
2.80409e-06
6.97894e-07
2.51308e-07
1.80876e-07
1.65312e-07
1.62486e-07
1.61786e-07
1.6164e-07
1.61591e-07
1.61569e-07
1.61469e-07
1.61357e-07
1.60474e-07
1.59798e-07
1.53286e-07
1.50509e-07
1.11601e-07
1.07591e-07
-1.6261e-05
1.56579e-05
2.80236e-06
6.9762e-07
2.51245e-07
1.80865e-07
1.65309e-07
1.62485e-07
1.61786e-07
1.6164e-07
1.61591e-07
1.61569e-07
1.61469e-07
1.61357e-07
1.60474e-07
1.59798e-07
1.53286e-07
1.50509e-07
1.11601e-07
1.07591e-07
-1.62529e-05
1.5646e-05
2.79822e-06
6.96993e-07
2.51104e-07
1.80842e-07
1.65304e-07
1.62484e-07
1.61786e-07
1.6164e-07
1.61591e-07
1.61569e-07
1.61469e-07
1.61357e-07
1.60474e-07
1.59798e-07
1.53286e-07
1.50509e-07
1.11601e-07
1.07591e-07
-1.62515e-05
1.56439e-05
2.79748e-06
6.96875e-07
2.51076e-07
1.80837e-07
1.65303e-07
1.62484e-07
1.61786e-07
1.6164e-07
1.61591e-07
1.61569e-07
1.61469e-07
1.61357e-07
1.60474e-07
1.59798e-07
1.53286e-07
1.50509e-07
1.11601e-07
1.07591e-07
-1.62491e-05
1.56404e-05
2.79627e-06
6.96693e-07
2.51036e-07
1.80831e-07
1.65301e-07
1.62483e-07
1.61786e-07
1.6164e-07
1.61591e-07
1.61569e-07
1.61469e-07
1.61357e-07
1.60474e-07
1.59798e-07
1.53286e-07
1.50509e-07
1.11601e-07
1.07591e-07
-1.62491e-05
1.56404e-05
2.79627e-06
6.96693e-07
2.51036e-07
1.80831e-07
1.65301e-07
1.62483e-07
1.61786e-07
1.6164e-07
1.61591e-07
1.61569e-07
1.61469e-07
1.61357e-07
1.60474e-07
1.59798e-07
1.53286e-07
1.50509e-07
1.11601e-07
1.07591e-07
-1.62515e-05
1.56439e-05
2.79748e-06
6.96875e-07
2.51076e-07
1.80837e-07
1.65303e-07
1.62484e-07
1.61786e-07
1.6164e-07
1.61591e-07
1.61569e-07
1.61469e-07
1.61357e-07
1.60474e-07
1.59798e-07
1.53286e-07
1.50509e-07
1.11601e-07
1.07591e-07
-1.62529e-05
1.5646e-05
2.79822e-06
6.96993e-07
2.51104e-07
1.80842e-07
1.65304e-07
1.62484e-07
1.61786e-07
1.6164e-07
1.61591e-07
1.61569e-07
1.61469e-07
1.61357e-07
1.60474e-07
1.59798e-07
1.53286e-07
1.50509e-07
1.11601e-07
1.07591e-07
-1.6261e-05
1.56579e-05
2.80236e-06
6.9762e-07
2.51245e-07
1.80865e-07
1.65309e-07
1.62485e-07
1.61786e-07
1.6164e-07
1.61591e-07
1.61569e-07
1.61469e-07
1.61357e-07
1.60474e-07
1.59798e-07
1.53286e-07
1.50509e-07
1.11601e-07
1.07591e-07
-1.62643e-05
1.56627e-05
2.80409e-06
6.97894e-07
2.51308e-07
1.80876e-07
1.65312e-07
1.62486e-07
1.61786e-07
1.6164e-07
1.61591e-07
1.61569e-07
1.61469e-07
1.61357e-07
1.60474e-07
1.59798e-07
1.53286e-07
1.50509e-07
1.11601e-07
1.07591e-07
-1.62814e-05
1.56887e-05
2.81303e-06
6.99234e-07
2.51603e-07
1.80924e-07
1.65323e-07
1.62488e-07
1.61787e-07
1.6164e-07
1.61592e-07
1.61569e-07
1.61469e-07
1.61357e-07
1.60475e-07
1.59799e-07
1.53286e-07
1.50509e-07
1.11601e-07
1.07591e-07
-1.62871e-05
1.56971e-05
2.81601e-06
6.99701e-07
2.51709e-07
1.80942e-07
1.65328e-07
1.62489e-07
1.61787e-07
1.6164e-07
1.61592e-07
1.61569e-07
1.61469e-07
1.61357e-07
1.60475e-07
1.59799e-07
1.53286e-07
1.50509e-07
1.11601e-07
1.07592e-07
-1.63169e-05
1.575e-05
2.83248e-06
7.01907e-07
2.52141e-07
1.80999e-07
1.6534e-07
1.62491e-07
1.61789e-07
1.61641e-07
1.61593e-07
1.61571e-07
1.61471e-07
1.61359e-07
1.60477e-07
1.59802e-07
1.53293e-07
1.50516e-07
1.11613e-07
1.07598e-07
-1.63236e-05
1.57606e-05
2.83581e-06
7.02364e-07
2.52232e-07
1.81011e-07
1.65343e-07
1.62492e-07
1.61789e-07
1.61642e-07
1.61593e-07
1.61571e-07
1.61471e-07
1.61359e-07
1.60478e-07
1.59803e-07
1.53295e-07
1.50518e-07
1.11616e-07
1.076e-07
-1.62546e-05
1.58001e-05
2.82144e-06
6.97395e-07
2.51013e-07
1.80711e-07
1.65291e-07
1.62493e-07
1.61806e-07
1.61662e-07
1.61615e-07
1.61593e-07
1.61495e-07
1.61386e-07
1.60519e-07
1.59851e-07
1.53415e-07
1.50644e-07
1.11916e-07
1.07812e-07
-1.58706e-05
1.59707e-05
2.84687e-06
7.02818e-07
2.5196e-07
1.80931e-07
1.65316e-07
1.62587e-07
1.61896e-07
1.6175e-07
1.61703e-07
1.61681e-07
1.61581e-07
1.6147e-07
1.60564e-07
1.59833e-07
1.53333e-07
1.50537e-07
1.11321e-07
1.07188e-07
-1.59345e-05
1.5931e-05
2.8614e-06
7.07843e-07
2.53194e-07
1.81234e-07
1.6537e-07
1.62585e-07
1.6188e-07
1.6173e-07
1.61681e-07
1.61659e-07
1.61557e-07
1.61444e-07
1.60522e-07
1.59784e-07
1.53212e-07
1.50409e-07
1.11017e-07
1.06972e-07
-1.59277e-05
1.59204e-05
2.85804e-06
7.07381e-07
2.53102e-07
1.81222e-07
1.65367e-07
1.62585e-07
1.6188e-07
1.6173e-07
1.61681e-07
1.61658e-07
1.61557e-07
1.61444e-07
1.60521e-07
1.59783e-07
1.5321e-07
1.50407e-07
1.11014e-07