/*--------------------------------*- C++ -*----------------------------------*\
  =========                 |
  \\      /  F ield         | OpenFOAM: The Open Source CFD Toolbox
   \\    /   O peration     | Website:  https://openfoam.org
    \\  /    A nd           | Version:  8
     \\/     M anipulation  |
\*---------------------------------------------------------------------------*/
FoamFile
{
    version     2.0;
    format      ascii;
    class       volScalarField;
    location    "4.5";
    object      S1;
}
// * * * * * * * * * * * * * * * * * * * * * * * * * * * * * * * * * * * * * //

dimensions      [0 1 -1 0 0 0 0];

internalField   nonuniform List<scalar> 
180000
(
5.84989e-25
1.43219e-20
2.86109e-16
4.67931e-12
6.36416e-08
6.96776e-25
1.64478e-20
3.21206e-16
5.16448e-12
6.92364e-08
6.98129e-25
1.64724e-20
3.21574e-16
5.16873e-12
6.92712e-08
7.01375e-25
1.65328e-20
3.22486e-16
5.17959e-12
6.93629e-08
7.00664e-25
1.65183e-20
3.22218e-16
5.17532e-12
6.93038e-08
6.98496e-25
1.64749e-20
3.21436e-16
5.16327e-12
6.91421e-08
6.9808e-25
1.64665e-20
3.2128e-16
5.16082e-12
6.91082e-08
6.97071e-25
1.64462e-20
3.20913e-16
5.15515e-12
6.90317e-08
6.96911e-25
1.64429e-20
3.20852e-16
5.15418e-12
6.90182e-08
6.96643e-25
1.64375e-20
3.20753e-16
5.15263e-12
6.89971e-08
6.96643e-25
1.64375e-20
3.20753e-16
5.15263e-12
6.89971e-08
6.96911e-25
1.64429e-20
3.20852e-16
5.15418e-12
6.90182e-08
6.97071e-25
1.64462e-20
3.20913e-16
5.15515e-12
6.90317e-08
6.9808e-25
1.64665e-20
3.2128e-16
5.16082e-12
6.91082e-08
6.98496e-25
1.64749e-20
3.21436e-16
5.16327e-12
6.91421e-08
7.00664e-25
1.65183e-20
3.22218e-16
5.17532e-12
6.93038e-08
7.01375e-25
1.65328e-20
3.22486e-16
5.17959e-12
6.93629e-08
6.98129e-25
1.64724e-20
3.21574e-16
5.16873e-12
6.92712e-08
6.96776e-25
1.64478e-20
3.21206e-16
5.16448e-12
6.92364e-08
5.84989e-25
1.43219e-20
2.86109e-16
4.67931e-12
6.36416e-08
5.84982e-25
1.43215e-20
2.8609e-16
4.68165e-12
6.80992e-08
6.96768e-25
1.64472e-20
3.21185e-16
5.16687e-12
7.38799e-08
6.98121e-25
1.64719e-20
3.21553e-16
5.17112e-12
7.39123e-08
7.01368e-25
1.65323e-20
3.22465e-16
5.18196e-12
7.39938e-08
7.00656e-25
1.65178e-20
3.22197e-16
5.1777e-12
7.39299e-08
6.98488e-25
1.64744e-20
3.21415e-16
5.16564e-12
7.37546e-08
6.98073e-25
1.6466e-20
3.2126e-16
5.16318e-12
7.37179e-08
6.97064e-25
1.64457e-20
3.20892e-16
5.1575e-12
7.3635e-08
6.96903e-25
1.64424e-20
3.20832e-16
5.15653e-12
7.36203e-08
6.96636e-25
1.64369e-20
3.20732e-16
5.15499e-12
7.35974e-08
6.96636e-25
1.64369e-20
3.20732e-16
5.15499e-12
7.35974e-08
6.96903e-25
1.64424e-20
3.20832e-16
5.15653e-12
7.36203e-08
6.97064e-25
1.64457e-20
3.20892e-16
5.1575e-12
7.3635e-08
6.98073e-25
1.6466e-20
3.2126e-16
5.16318e-12
7.37179e-08
6.98488e-25
1.64744e-20
3.21415e-16
5.16564e-12
7.37546e-08
7.00656e-25
1.65178e-20
3.22197e-16
5.1777e-12
7.39299e-08
7.01368e-25
1.65323e-20
3.22465e-16
5.18196e-12
7.39938e-08
6.98121e-25
1.64719e-20
3.21553e-16
5.17112e-12
7.39123e-08
6.96769e-25
1.64472e-20
3.21185e-16
5.16687e-12
7.38799e-08
5.84982e-25
1.43215e-20
2.8609e-16
4.68165e-12
6.80992e-08
5.84976e-25
1.43207e-20
2.86065e-16
4.69556e-12
8.84879e-08
6.96761e-25
1.64463e-20
3.21156e-16
5.18104e-12
9.48297e-08
6.98114e-25
1.6471e-20
3.21525e-16
5.18527e-12
9.48538e-08
7.01361e-25
1.65313e-20
3.22437e-16
5.19606e-12
9.49051e-08
7.0065e-25
1.65168e-20
3.22169e-16
5.19178e-12
9.4826e-08
6.98481e-25
1.64734e-20
3.21387e-16
5.17967e-12
9.46081e-08
6.98066e-25
1.6465e-20
3.21232e-16
5.17721e-12
9.45626e-08
6.97057e-25
1.64447e-20
3.20864e-16
5.17151e-12
9.44593e-08
6.96897e-25
1.64414e-20
3.20804e-16
5.17054e-12
9.44408e-08
6.96629e-25
1.6436e-20
3.20705e-16
5.16898e-12
9.4412e-08
6.96629e-25
1.6436e-20
3.20705e-16
5.16898e-12
9.4412e-08
6.96897e-25
1.64414e-20
3.20804e-16
5.17054e-12
9.44408e-08
6.97057e-25
1.64447e-20
3.20864e-16
5.17151e-12
9.44593e-08
6.98066e-25
1.6465e-20
3.21232e-16
5.17721e-12
9.45626e-08
6.98481e-25
1.64734e-20
3.21387e-16
5.17967e-12
9.46081e-08
7.0065e-25
1.65168e-20
3.22169e-16
5.19178e-12
9.4826e-08
7.01361e-25
1.65313e-20
3.22437e-16
5.19606e-12
9.49051e-08
6.98114e-25
1.6471e-20
3.21525e-16
5.18527e-12
9.48538e-08
6.96761e-25
1.64463e-20
3.21156e-16
5.18104e-12
9.48297e-08
5.84976e-25
1.43207e-20
2.86065e-16
4.69556e-12
8.84879e-08
5.84969e-25
1.43192e-20
2.86053e-16
4.73618e-12
1.35222e-07
6.96752e-25
1.64446e-20
3.21139e-16
5.22212e-12
1.4234e-07
6.98107e-25
1.64693e-20
3.21508e-16
5.22633e-12
1.4235e-07
7.01353e-25
1.65296e-20
3.22419e-16
5.23698e-12
1.4236e-07
7.00642e-25
1.65151e-20
3.22151e-16
5.23266e-12
1.42258e-07
6.98474e-25
1.64718e-20
3.2137e-16
5.22045e-12
1.41977e-07
6.98058e-25
1.64633e-20
3.21214e-16
5.21797e-12
1.41918e-07
6.97049e-25
1.6443e-20
3.20847e-16
5.21222e-12
1.41784e-07
6.96889e-25
1.64397e-20
3.20787e-16
5.21123e-12
1.4176e-07
6.96621e-25
1.64343e-20
3.20688e-16
5.20967e-12
1.41722e-07
6.96621e-25
1.64343e-20
3.20688e-16
5.20967e-12
1.41722e-07
6.96889e-25
1.64397e-20
3.20787e-16
5.21123e-12
1.4176e-07
6.97049e-25
1.6443e-20
3.20847e-16
5.21222e-12
1.41784e-07
6.98058e-25
1.64633e-20
3.21214e-16
5.21797e-12
1.41918e-07
6.98474e-25
1.64718e-20
3.2137e-16
5.22045e-12
1.41977e-07
7.00642e-25
1.65151e-20
3.22151e-16
5.23266e-12
1.42258e-07
7.01353e-25
1.65296e-20
3.22419e-16
5.23698e-12
1.4236e-07
6.98107e-25
1.64693e-20
3.21508e-16
5.22633e-12
1.4235e-07
6.96753e-25
1.64446e-20
3.21139e-16
5.22212e-12
1.4234e-07
5.84969e-25
1.43192e-20
2.86053e-16
4.73618e-12
1.35222e-07
5.84961e-25
1.43172e-20
2.8608e-16
4.82095e-12
2.11997e-07
6.96742e-25
1.64423e-20
3.21159e-16
5.30738e-12
2.19824e-07
6.98098e-25
1.6467e-20
3.21528e-16
5.31153e-12
2.19813e-07
7.01344e-25
1.65273e-20
3.22439e-16
5.32192e-12
2.19765e-07
7.00633e-25
1.65128e-20
3.22171e-16
5.31753e-12
2.19634e-07
6.98465e-25
1.64695e-20
3.2139e-16
5.30513e-12
2.19279e-07
6.98049e-25
1.6461e-20
3.21234e-16
5.30261e-12
2.19203e-07
6.9704e-25
1.64407e-20
3.20867e-16
5.29677e-12
2.19033e-07
6.9688e-25
1.64375e-20
3.20806e-16
5.29577e-12
2.19001e-07
6.96612e-25
1.6432e-20
3.20707e-16
5.29418e-12
2.18953e-07
6.96612e-25
1.6432e-20
3.20707e-16
5.29418e-12
2.18953e-07
6.9688e-25
1.64375e-20
3.20806e-16
5.29577e-12
2.19001e-07
6.9704e-25
1.64407e-20
3.20867e-16
5.29677e-12
2.19033e-07
6.98049e-25
1.6461e-20
3.21234e-16
5.30261e-12
2.19203e-07
6.98465e-25
1.64695e-20
3.2139e-16
5.30513e-12
2.19279e-07
7.00633e-25
1.65128e-20
3.22171e-16
5.31753e-12
2.19634e-07
7.01344e-25
1.65273e-20
3.22439e-16
5.32192e-12
2.19765e-07
6.98098e-25
1.6467e-20
3.21528e-16
5.31153e-12
2.19813e-07
6.96742e-25
1.64423e-20
3.21159e-16
5.30738e-12
2.19824e-07
5.84961e-25
1.43172e-20
2.8608e-16
4.82095e-12
2.11997e-07
5.84952e-25
1.43148e-20
2.86184e-16
4.96788e-12
3.19709e-07
6.9673e-25
1.64394e-20
3.21254e-16
5.45454e-12
3.28016e-07
6.98087e-25
1.64642e-20
3.21623e-16
5.45859e-12
3.27974e-07
7.01333e-25
1.65245e-20
3.22534e-16
5.46852e-12
3.27823e-07
7.00622e-25
1.651e-20
3.22266e-16
5.46404e-12
3.27659e-07
6.98454e-25
1.64667e-20
3.21484e-16
5.45133e-12
3.27211e-07
6.98039e-25
1.64582e-20
3.21328e-16
5.44875e-12
3.27115e-07
6.9703e-25
1.64379e-20
3.20961e-16
5.44276e-12
3.26899e-07
6.96869e-25
1.64347e-20
3.209e-16
5.44174e-12
3.26859e-07
6.96602e-25
1.64292e-20
3.20801e-16
5.4401e-12
3.26797e-07
6.96602e-25
1.64292e-20
3.20801e-16
5.4401e-12
3.26797e-07
6.96869e-25
1.64347e-20
3.209e-16
5.44174e-12
3.26859e-07
6.9703e-25
1.64379e-20
3.20961e-16
5.44276e-12
3.26899e-07
6.98039e-25
1.64582e-20
3.21328e-16
5.44875e-12
3.27115e-07
6.98454e-25
1.64667e-20
3.21484e-16
5.45133e-12
3.27211e-07
7.00622e-25
1.651e-20
3.22266e-16
5.46404e-12
3.27659e-07
7.01333e-25
1.65245e-20
3.22534e-16
5.46852e-12
3.27823e-07
6.98087e-25
1.64642e-20
3.21623e-16
5.45859e-12
3.27974e-07
6.9673e-25
1.64394e-20
3.21254e-16
5.45454e-12
3.28016e-07
5.84952e-25
1.43148e-20
2.86184e-16
4.96788e-12
3.19709e-07
5.84941e-25
1.4312e-20
2.86418e-16
5.19559e-12
4.59377e-07
6.96715e-25
1.64361e-20
3.21474e-16
5.68187e-12
4.67832e-07
6.98074e-25
1.64609e-20
3.21844e-16
5.68578e-12
4.67746e-07
7.01321e-25
1.65213e-20
3.22753e-16
5.69497e-12
4.67418e-07
7.0061e-25
1.65068e-20
3.22485e-16
5.69034e-12
4.67211e-07
6.98442e-25
1.64635e-20
3.21702e-16
5.67718e-12
4.66639e-07
6.98026e-25
1.6455e-20
3.21547e-16
5.67451e-12
4.66518e-07
6.97017e-25
1.64347e-20
3.21179e-16
5.66831e-12
4.66243e-07
6.96857e-25
1.64314e-20
3.21119e-16
5.66725e-12
4.66191e-07
6.96589e-25
1.6426e-20
3.21019e-16
5.66555e-12
4.66112e-07
6.96589e-25
1.6426e-20
3.21019e-16
5.66555e-12
4.66112e-07
6.96857e-25
1.64314e-20
3.21119e-16
5.66725e-12
4.66191e-07
6.97017e-25
1.64347e-20
3.21179e-16
5.66831e-12
4.66243e-07
6.98026e-25
1.6455e-20
3.21547e-16
5.67451e-12
4.66518e-07
6.98442e-25
1.64635e-20
3.21702e-16
5.67718e-12
4.66639e-07
7.0061e-25
1.65068e-20
3.22485e-16
5.69034e-12
4.67211e-07
7.01321e-25
1.65213e-20
3.22753e-16
5.69497e-12
4.67418e-07
6.98074e-25
1.64609e-20
3.21844e-16
5.68578e-12
4.67746e-07
6.96715e-25
1.64361e-20
3.21474e-16
5.68187e-12
4.67832e-07
5.84941e-25
1.4312e-20
2.86418e-16
5.19559e-12
4.59377e-07
5.84928e-25
1.4309e-20
2.86844e-16
5.52342e-12
6.32202e-07
6.96697e-25
1.64326e-20
3.21883e-16
6.00831e-12
6.40353e-07
6.9806e-25
1.64574e-20
3.22253e-16
6.01199e-12
6.40204e-07
7.01306e-25
1.65177e-20
3.23159e-16
6.02007e-12
6.39595e-07
7.00595e-25
1.65033e-20
3.2289e-16
6.01523e-12
6.39334e-07
6.98427e-25
1.646e-20
3.22107e-16
6.00142e-12
6.38597e-07
6.98011e-25
1.64515e-20
3.21951e-16
5.99864e-12
6.38444e-07
6.97003e-25
1.64312e-20
3.21583e-16
5.99213e-12
6.38091e-07
6.96842e-25
1.64279e-20
3.21522e-16
5.99102e-12
6.38026e-07
6.96575e-25
1.64225e-20
3.21423e-16
5.98923e-12
6.37925e-07
6.96575e-25
1.64225e-20
3.21423e-16
5.98923e-12
6.37925e-07
6.96842e-25
1.64279e-20
3.21522e-16
5.99102e-12
6.38026e-07
6.97003e-25
1.64312e-20
3.21583e-16
5.99213e-12
6.38091e-07
6.98011e-25
1.64515e-20
3.21951e-16
5.99864e-12
6.38444e-07
6.98427e-25
1.646e-20
3.22107e-16
6.00142e-12
6.38597e-07
7.00595e-25
1.65033e-20
3.2289e-16
6.01523e-12
6.39334e-07
7.01306e-25
1.65177e-20
3.23159e-16
6.02007e-12
6.39595e-07
6.9806e-25
1.64574e-20
3.22253e-16
6.01199e-12
6.40204e-07
6.96697e-25
1.64326e-20
3.21883e-16
6.00831e-12
6.40353e-07
5.84928e-25
1.4309e-20
2.86844e-16
5.52342e-12
6.32202e-07
5.84913e-25
1.4306e-20
2.87538e-16
5.97119e-12
8.38904e-07
6.96678e-25
1.64289e-20
3.22554e-16
6.45313e-12
8.4613e-07
6.98043e-25
1.64538e-20
3.22923e-16
6.45649e-12
8.45898e-07
7.01289e-25
1.65141e-20
3.23825e-16
6.46297e-12
8.44878e-07
7.00578e-25
1.64996e-20
3.23556e-16
6.45785e-12
8.4455e-07
6.9841e-25
1.64564e-20
3.22771e-16
6.44315e-12
8.43597e-07
6.97995e-25
1.64479e-20
3.22614e-16
6.4402e-12
8.43406e-07
6.96986e-25
1.64276e-20
3.22246e-16
6.43328e-12
8.42951e-07
6.96826e-25
1.64243e-20
3.22184e-16
6.4321e-12
8.42869e-07
6.96558e-25
1.64189e-20
3.22085e-16
6.43019e-12
8.42738e-07
6.96558e-25
1.64189e-20
3.22085e-16
6.43019e-12
8.42738e-07
6.96826e-25
1.64243e-20
3.22184e-16
6.4321e-12
8.42869e-07
6.96986e-25
1.64276e-20
3.22246e-16
6.43328e-12
8.42951e-07
6.97995e-25
1.64479e-20
3.22614e-16
6.4402e-12
8.43406e-07
6.9841e-25
1.64564e-20
3.22771e-16
6.44315e-12
8.43597e-07
7.00578e-25
1.64996e-20
3.23556e-16
6.45785e-12
8.4455e-07
7.01289e-25
1.65141e-20
3.23825e-16
6.46297e-12
8.44878e-07
6.98043e-25
1.64538e-20
3.22923e-16
6.45649e-12
8.45898e-07
6.96678e-25
1.64289e-20
3.22554e-16
6.45313e-12
8.4613e-07
5.84913e-25
1.4306e-20
2.87538e-16
5.97119e-12
8.38904e-07
5.84897e-25
1.43032e-20
2.88589e-16
6.55841e-12
1.0789e-06
6.96656e-25
1.64254e-20
3.23573e-16
7.03518e-12
1.08439e-06
6.98024e-25
1.64503e-20
3.23942e-16
7.03811e-12
1.08405e-06
7.01271e-25
1.65106e-20
3.24837e-16
7.04236e-12
1.08246e-06
7.0056e-25
1.64961e-20
3.24567e-16
7.03687e-12
1.08205e-06
6.98392e-25
1.64529e-20
3.23779e-16
7.02099e-12
1.08082e-06
6.97976e-25
1.64444e-20
3.23622e-16
7.01782e-12
1.08058e-06
6.96967e-25
1.64242e-20
3.23251e-16
7.01035e-12
1.08e-06
6.96807e-25
1.64209e-20
3.2319e-16
7.00908e-12
1.0799e-06
6.96539e-25
1.64155e-20
3.2309e-16
7.00701e-12
1.07973e-06
6.96539e-25
1.64155e-20
3.2309e-16
7.00701e-12
1.07973e-06
6.96807e-25
1.64209e-20
3.2319e-16
7.00908e-12
1.0799e-06
6.96967e-25
1.64242e-20
3.23251e-16
7.01035e-12
1.08e-06
6.97976e-25
1.64444e-20
3.23622e-16
7.01782e-12
1.08058e-06
6.98392e-25
1.64529e-20
3.23779e-16
7.02099e-12
1.08082e-06
7.0056e-25
1.64961e-20
3.24567e-16
7.03687e-12
1.08205e-06
7.0127e-25
1.65106e-20
3.24837e-16
7.04236e-12
1.08246e-06
6.98024e-25
1.64503e-20
3.23942e-16
7.03811e-12
1.08405e-06
6.96656e-25
1.64254e-20
3.23573e-16
7.03518e-12
1.08439e-06
5.84897e-25
1.43032e-20
2.88589e-16
6.55841e-12
1.0789e-06
5.8488e-25
1.43009e-20
2.89996e-16
7.14386e-12
1.07624e-06
6.96632e-25
1.64222e-20
3.2494e-16
7.61544e-12
1.08176e-06
6.98004e-25
1.64472e-20
3.25308e-16
7.61794e-12
1.08142e-06
7.0125e-25
1.65075e-20
3.26194e-16
7.61998e-12
1.07986e-06
7.00539e-25
1.6493e-20
3.25922e-16
7.61414e-12
1.07945e-06
6.98371e-25
1.64498e-20
3.2513e-16
7.59708e-12
1.07824e-06
6.97956e-25
1.64413e-20
3.24972e-16
7.5937e-12
1.078e-06
6.96947e-25
1.64211e-20
3.246e-16
7.58568e-12
1.07742e-06
6.96787e-25
1.64178e-20
3.24538e-16
7.58431e-12
1.07732e-06
6.96519e-25
1.64124e-20
3.24438e-16
7.58209e-12
1.07716e-06
6.96519e-25
1.64124e-20
3.24438e-16
7.58209e-12
1.07716e-06
6.96787e-25
1.64178e-20
3.24538e-16
7.58431e-12
1.07732e-06
6.96947e-25
1.64211e-20
3.246e-16
7.58568e-12
1.07742e-06
6.97956e-25
1.64413e-20
3.24972e-16
7.5937e-12
1.078e-06
6.98371e-25
1.64498e-20
3.2513e-16
7.59708e-12
1.07824e-06
7.00539e-25
1.6493e-20
3.25922e-16
7.61414e-12
1.07945e-06
7.0125e-25
1.65075e-20
3.26194e-16
7.61998e-12
1.07986e-06
6.98004e-25
1.64472e-20
3.25308e-16
7.61794e-12
1.08142e-06
6.96632e-25
1.64222e-20
3.2494e-16
7.61544e-12
1.08176e-06
5.8488e-25
1.43009e-20
2.89996e-16
7.14386e-12
1.07624e-06
5.84862e-25
1.42993e-20
2.91759e-16
7.72755e-12
1.07367e-06
6.96606e-25
1.64196e-20
3.26653e-16
8.19391e-12
1.07921e-06
6.97982e-25
1.64447e-20
3.2702e-16
8.19599e-12
1.07888e-06
7.01228e-25
1.65049e-20
3.27895e-16
8.19584e-12
1.07734e-06
7.00518e-25
1.64905e-20
3.27622e-16
8.18964e-12
1.07694e-06
6.9835e-25
1.64472e-20
3.26824e-16
8.17141e-12
1.07573e-06
6.97934e-25
1.64388e-20
3.26665e-16
8.16783e-12
1.0755e-06
6.96926e-25
1.64185e-20
3.2629e-16
8.15926e-12
1.07493e-06
6.96765e-25
1.64153e-20
3.26228e-16
8.15781e-12
1.07483e-06
6.96498e-25
1.64098e-20
3.26127e-16
8.15542e-12
1.07466e-06
6.96498e-25
1.64098e-20
3.26127e-16
8.15542e-12
1.07466e-06
6.96765e-25
1.64153e-20
3.26228e-16
8.15781e-12
1.07483e-06
6.96926e-25
1.64185e-20
3.2629e-16
8.15926e-12
1.07493e-06
6.97934e-25
1.64388e-20
3.26665e-16
8.16783e-12
1.0755e-06
6.9835e-25
1.64472e-20
3.26824e-16
8.17141e-12
1.07573e-06
7.00518e-25
1.64905e-20
3.27622e-16
8.18964e-12
1.07694e-06
7.01228e-25
1.65049e-20
3.27895e-16
8.19584e-12
1.07734e-06
6.97982e-25
1.64447e-20
3.2702e-16
8.19599e-12
1.07888e-06
6.96606e-25
1.64196e-20
3.26653e-16
8.19391e-12
1.07921e-06
5.84862e-25
1.42993e-20
2.91759e-16
7.72755e-12
1.07367e-06
5.84844e-25
1.42986e-20
2.93875e-16
8.30939e-12
1.07117e-06
6.96579e-25
1.64179e-20
3.28712e-16
8.77051e-12
1.07674e-06
6.9796e-25
1.6443e-20
3.29078e-16
8.77218e-12
1.07641e-06
7.01206e-25
1.65032e-20
3.29938e-16
8.76986e-12
1.07489e-06
7.00495e-25
1.64887e-20
3.29663e-16
8.7633e-12
1.07449e-06
6.98328e-25
1.64455e-20
3.28859e-16
8.74392e-12
1.0733e-06
6.97912e-25
1.64371e-20
3.28699e-16
8.74013e-12
1.07307e-06
6.96904e-25
1.64168e-20
3.28322e-16
8.73103e-12
1.0725e-06
6.96743e-25
1.64135e-20
3.28259e-16
8.72948e-12
1.0724e-06
6.96476e-25
1.64081e-20
3.28157e-16
8.72694e-12
1.07224e-06
6.96476e-25
1.64081e-20
3.28157e-16
8.72694e-12
1.07224e-06
6.96743e-25
1.64135e-20
3.28259e-16
8.72948e-12
1.0724e-06
6.96904e-25
1.64168e-20
3.28322e-16
8.73103e-12
1.0725e-06
6.97912e-25
1.64371e-20
3.28699e-16
8.74013e-12
1.07307e-06
6.98328e-25
1.64455e-20
3.28859e-16
8.74392e-12
1.0733e-06
7.00495e-25
1.64887e-20
3.29663e-16
8.7633e-12
1.07449e-06
7.01206e-25
1.65032e-20
3.29938e-16
8.76986e-12
1.07489e-06
6.9796e-25
1.6443e-20
3.29078e-16
8.77218e-12
1.07641e-06
6.96579e-25
1.64179e-20
3.28712e-16
8.77051e-12
1.07674e-06
5.84844e-25
1.42986e-20
2.93875e-16
8.30939e-12
1.07117e-06
5.84826e-25
1.4299e-20
2.96344e-16
8.88931e-12
1.06874e-06
6.96552e-25
1.64172e-20
3.31116e-16
9.34516e-12
1.07433e-06
6.97937e-25
1.64424e-20
3.3148e-16
9.34641e-12
1.07401e-06
7.01183e-25
1.65025e-20
3.32324e-16
9.34195e-12
1.07251e-06
7.00473e-25
1.64881e-20
3.32047e-16
9.33504e-12
1.07212e-06
6.98305e-25
1.64448e-20
3.31235e-16
9.31452e-12
1.07094e-06
6.9789e-25
1.64364e-20
3.31074e-16
9.31053e-12
1.07071e-06
6.96881e-25
1.64161e-20
3.30693e-16
9.30088e-12
1.07015e-06
6.96721e-25
1.64129e-20
3.30629e-16
9.29925e-12
1.07005e-06
6.96453e-25
1.64074e-20
3.30526e-16
9.29655e-12
1.06988e-06
6.96453e-25
1.64074e-20
3.30526e-16
9.29655e-12
1.06988e-06
6.96721e-25
1.64129e-20
3.30629e-16
9.29925e-12
1.07005e-06
6.96881e-25
1.64161e-20
3.30693e-16
9.30088e-12
1.07015e-06
6.9789e-25
1.64364e-20
3.31074e-16
9.31053e-12
1.07071e-06
6.98305e-25
1.64448e-20
3.31235e-16
9.31452e-12
1.07094e-06
7.00473e-25
1.64881e-20
3.32047e-16
9.33504e-12
1.07212e-06
7.01183e-25
1.65025e-20
3.32324e-16
9.34195e-12
1.07251e-06
6.97937e-25
1.64424e-20
3.3148e-16
9.34641e-12
1.07401e-06
6.96552e-25
1.64172e-20
3.31115e-16
9.34516e-12
1.07433e-06
5.84826e-25
1.4299e-20
2.96344e-16
8.88931e-12
1.06874e-06
5.8481e-25
1.43009e-20
2.99165e-16
9.46721e-12
1.06637e-06
6.96526e-25
1.64178e-20
3.33862e-16
9.91776e-12
1.07199e-06
6.97916e-25
1.6443e-20
3.34225e-16
9.91861e-12
1.07167e-06
7.01162e-25
1.65031e-20
3.35051e-16
9.91203e-12
1.07019e-06
7.00451e-25
1.64886e-20
3.34771e-16
9.90478e-12
1.0698e-06
6.98284e-25
1.64454e-20
3.3395e-16
9.88312e-12
1.06863e-06
6.97868e-25
1.6437e-20
3.33788e-16
9.87892e-12
1.0684e-06
6.9686e-25
1.64167e-20
3.33402e-16
9.86875e-12
1.06785e-06
6.967e-25
1.64134e-20
3.33338e-16
9.86703e-12
1.06775e-06
6.96432e-25
1.6408e-20
3.33234e-16
9.86418e-12
1.06759e-06
6.96432e-25
1.6408e-20
3.33234e-16
9.86418e-12
1.06759e-06
6.967e-25
1.64134e-20
3.33338e-16
9.86703e-12
1.06775e-06
6.9686e-25
1.64167e-20
3.33402e-16
9.86875e-12
1.06785e-06
6.97868e-25
1.6437e-20
3.33788e-16
9.87892e-12
1.0684e-06
6.98284e-25
1.64454e-20
3.3395e-16
9.88312e-12
1.06863e-06
7.00451e-25
1.64886e-20
3.34771e-16
9.90478e-12
1.0698e-06
7.01162e-25
1.65031e-20
3.35051e-16
9.91203e-12
1.07019e-06
6.97916e-25
1.6443e-20
3.34225e-16
9.91861e-12
1.07167e-06
6.96526e-25
1.64177e-20
3.33862e-16
9.91776e-12
1.07199e-06
5.8481e-25
1.43009e-20
2.99165e-16
9.46721e-12
1.06637e-06
5.84797e-25
1.43043e-20
3.02337e-16
1.0043e-11
1.06407e-06
6.96501e-25
1.64198e-20
3.36951e-16
1.04882e-11
1.06971e-06
6.97896e-25
1.64452e-20
3.37311e-16
1.04887e-11
1.06939e-06
7.01142e-25
1.65051e-20
3.38116e-16
1.048e-11
1.06793e-06
7.00432e-25
1.64907e-20
3.37834e-16
1.04724e-11
1.06755e-06
6.98264e-25
1.64474e-20
3.37003e-16
1.04496e-11
1.06639e-06
6.97849e-25
1.6439e-20
3.36839e-16
1.04452e-11
1.06616e-06
6.9684e-25
1.64187e-20
3.36449e-16
1.04345e-11
1.06561e-06
6.9668e-25
1.64155e-20
3.36385e-16
1.04327e-11
1.06551e-06
6.96413e-25
1.64101e-20
3.36279e-16
1.04297e-11
1.06536e-06
6.96413e-25
1.64101e-20
3.36279e-16
1.04297e-11
1.06536e-06
6.9668e-25
1.64155e-20
3.36385e-16
1.04327e-11
1.06551e-06
6.9684e-25
1.64187e-20
3.36449e-16
1.04345e-11
1.06561e-06
6.97849e-25
1.6439e-20
3.36839e-16
1.04452e-11
1.06616e-06
6.98264e-25
1.64474e-20
3.37003e-16
1.04496e-11
1.06639e-06
7.00432e-25
1.64907e-20
3.37834e-16
1.04724e-11
1.06755e-06
7.01142e-25
1.65051e-20
3.38116e-16
1.048e-11
1.06793e-06
6.97896e-25
1.64452e-20
3.37311e-16
1.04887e-11
1.06939e-06
6.96501e-25
1.64198e-20
3.36951e-16
1.04882e-11
1.06971e-06
5.84797e-25
1.43043e-20
3.02337e-16
1.0043e-11
1.06407e-06
5.84788e-25
1.43097e-20
3.05857e-16
1.06166e-11
1.06182e-06
6.96479e-25
1.64236e-20
3.40381e-16
1.10565e-11
1.06748e-06
6.9788e-25
1.6449e-20
3.40738e-16
1.10566e-11
1.06717e-06
7.01125e-25
1.65089e-20
3.4152e-16
1.10458e-11
1.06573e-06
7.00415e-25
1.64944e-20
3.41235e-16
1.10379e-11
1.06534e-06
6.98248e-25
1.64512e-20
3.40393e-16
1.1014e-11
1.0642e-06
6.97832e-25
1.64427e-20
3.40227e-16
1.10094e-11
1.06397e-06
6.96824e-25
1.64225e-20
3.39832e-16
1.09982e-11
1.06343e-06
6.96664e-25
1.64192e-20
3.39767e-16
1.09963e-11
1.06333e-06
6.96396e-25
1.64138e-20
3.3966e-16
1.09931e-11
1.06317e-06
6.96396e-25
1.64138e-20
3.3966e-16
1.09931e-11
1.06317e-06
6.96664e-25
1.64192e-20
3.39767e-16
1.09963e-11
1.06333e-06
6.96824e-25
1.64225e-20
3.39832e-16
1.09982e-11
1.06343e-06
6.97832e-25
1.64427e-20
3.40227e-16
1.10094e-11
1.06397e-06
6.98248e-25
1.64512e-20
3.40393e-16
1.1014e-11
1.0642e-06
7.00415e-25
1.64944e-20
3.41235e-16
1.10379e-11
1.06534e-06
7.01125e-25
1.65089e-20
3.4152e-16
1.10458e-11
1.06573e-06
6.9788e-25
1.6449e-20
3.40738e-16
1.10566e-11
1.06717e-06
6.96479e-25
1.64236e-20
3.40381e-16
1.10565e-11
1.06748e-06
5.84788e-25
1.43097e-20
3.05857e-16
1.06166e-11
1.06182e-06
5.84784e-25
1.43171e-20
3.09726e-16
1.11879e-11
1.05963e-06
6.96462e-25
1.64294e-20
3.44149e-16
1.16224e-11
1.0653e-06
6.97868e-25
1.64549e-20
3.44503e-16
1.16221e-11
1.06499e-06
7.01113e-25
1.65146e-20
3.45261e-16
1.16093e-11
1.06357e-06
7.00403e-25
1.65001e-20
3.44972e-16
1.1601e-11
1.06319e-06
6.98235e-25
1.64569e-20
3.44118e-16
1.15761e-11
1.06205e-06
6.9782e-25
1.64484e-20
3.4395e-16
1.15713e-11
1.06183e-06
6.96812e-25
1.64281e-20
3.4355e-16
1.15595e-11
1.06129e-06
6.96651e-25
1.64249e-20
3.43484e-16
1.15576e-11
1.06119e-06
6.96384e-25
1.64194e-20
3.43375e-16
1.15543e-11
1.06104e-06
6.96384e-25
1.64194e-20
3.43375e-16
1.15543e-11
1.06104e-06
6.96651e-25
1.64249e-20
3.43484e-16
1.15576e-11
1.06119e-06
6.96812e-25
1.64281e-20
3.4355e-16
1.15595e-11
1.06129e-06
6.9782e-25
1.64484e-20
3.4395e-16
1.15713e-11
1.06183e-06
6.98235e-25
1.64569e-20
3.44118e-16
1.15761e-11
1.06205e-06
7.00403e-25
1.65001e-20
3.44972e-16
1.1601e-11
1.06319e-06
7.01113e-25
1.65146e-20
3.45261e-16
1.16093e-11
1.06357e-06
6.97868e-25
1.64549e-20
3.44503e-16
1.16221e-11
1.06499e-06
6.96461e-25
1.64294e-20
3.44149e-16
1.16224e-11
1.0653e-06
5.84784e-25
1.43171e-20
3.09726e-16
1.11879e-11
1.05963e-06
5.84788e-25
1.43268e-20
3.1394e-16
1.17569e-11
1.05747e-06
6.96449e-25
1.64373e-20
3.48255e-16
1.21859e-11
1.06316e-06
6.97862e-25
1.64628e-20
3.48605e-16
1.21852e-11
1.06286e-06
7.01106e-25
1.65224e-20
3.49336e-16
1.21704e-11
1.06145e-06
7.00396e-25
1.6508e-20
3.49043e-16
1.21618e-11
1.06107e-06
6.98229e-25
1.64646e-20
3.48177e-16
1.21358e-11
1.05995e-06
6.97813e-25
1.64562e-20
3.48007e-16
1.21308e-11
1.05973e-06
6.96805e-25
1.64359e-20
3.476e-16
1.21186e-11
1.05919e-06
6.96645e-25
1.64326e-20
3.47533e-16
1.21165e-11
1.05909e-06
6.96377e-25
1.64272e-20
3.47422e-16
1.21131e-11
1.05894e-06
6.96377e-25
1.64272e-20
3.47422e-16
1.21131e-11
1.05894e-06
6.96645e-25
1.64326e-20
3.47533e-16
1.21165e-11
1.05909e-06
6.96805e-25
1.64359e-20
3.476e-16
1.21186e-11
1.05919e-06
6.97813e-25
1.64562e-20
3.48007e-16
1.21308e-11
1.05973e-06
6.98229e-25
1.64646e-20
3.48177e-16
1.21358e-11
1.05995e-06
7.00396e-25
1.6508e-20
3.49043e-16
1.21618e-11
1.06107e-06
7.01106e-25
1.65224e-20
3.49336e-16
1.21704e-11
1.06145e-06
6.97862e-25
1.64628e-20
3.48605e-16
1.21852e-11
1.06286e-06
6.96449e-25
1.64373e-20
3.48255e-16
1.21859e-11
1.06316e-06
5.84788e-25
1.43268e-20
3.1394e-16
1.17569e-11
1.05747e-06
5.84799e-25
1.4339e-20
3.18498e-16
1.23233e-11
1.05532e-06
6.96444e-25
1.64476e-20
3.52696e-16
1.27469e-11
1.06102e-06
6.97863e-25
1.64732e-20
3.53043e-16
1.27458e-11
1.06072e-06
7.01107e-25
1.65326e-20
3.53745e-16
1.2729e-11
1.05934e-06
7.00397e-25
1.65181e-20
3.53447e-16
1.27201e-11
1.05896e-06
6.98229e-25
1.64748e-20
3.52567e-16
1.2693e-11
1.05784e-06
6.97814e-25
1.64663e-20
3.52395e-16
1.26878e-11
1.05762e-06
6.96806e-25
1.6446e-20
3.51982e-16
1.26751e-11
1.05709e-06
6.96645e-25
1.64427e-20
3.51913e-16
1.2673e-11
1.057e-06
6.96378e-25
1.64373e-20
3.51801e-16
1.26694e-11
1.05685e-06
6.96378e-25
1.64373e-20
3.51801e-16
1.26694e-11
1.05685e-06
6.96645e-25
1.64427e-20
3.51913e-16
1.2673e-11
1.057e-06
6.96806e-25
1.6446e-20
3.51982e-16
1.26751e-11
1.05709e-06
6.97814e-25
1.64663e-20
3.52395e-16
1.26878e-11
1.05762e-06
6.98229e-25
1.64748e-20
3.52567e-16
1.2693e-11
1.05784e-06
7.00397e-25
1.65181e-20
3.53447e-16
1.27201e-11
1.05896e-06
7.01107e-25
1.65326e-20
3.53745e-16
1.2729e-11
1.05934e-06
6.97863e-25
1.64732e-20
3.53043e-16
1.27458e-11
1.06072e-06
6.96444e-25
1.64476e-20
3.52696e-16
1.27469e-11
1.06102e-06
5.84799e-25
1.4339e-20
3.18498e-16
1.23233e-11
1.05532e-06
0.00157704
0.000429648
2.09731e-05
2.21925e-07
3.88267e-10
7.91759e-13
6.99897e-13
7.04213e-13
7.05155e-13
7.05331e-13
7.05395e-13
7.05786e-13
7.07715e-13
7.09998e-13
7.28532e-13
7.44084e-13
9.05799e-13
9.92135e-13
3.16796e-12
3.69781e-12
0.00169213
0.000463288
2.30804e-05
2.51638e-07
4.60389e-10
8.24116e-13
6.99755e-13
7.04173e-13
7.05138e-13
7.05318e-13
7.0537e-13
7.05687e-13
7.07659e-13
7.09983e-13
7.28845e-13
7.44587e-13
9.08486e-13
9.95404e-13
3.1969e-12
3.73321e-12
0.00169243
0.000463212
2.30582e-05
2.51274e-07
4.59442e-10
8.23716e-13
6.99752e-13
7.04173e-13
7.05138e-13
7.05318e-13
7.05371e-13
7.05693e-13
7.07667e-13
7.09992e-13
7.28861e-13
7.44606e-13
9.08539e-13
9.95459e-13
3.19719e-12
3.7335e-12
0.00169357
0.000462447
2.28996e-05
2.48614e-07
4.52515e-10
8.20781e-13
6.99747e-13
7.04173e-13
7.0514e-13
7.05321e-13
7.05375e-13
7.05722e-13
7.07699e-13
7.10028e-13
7.2892e-13
7.44676e-13
9.08717e-13
9.95648e-13
3.19812e-12
3.73431e-12
0.00169208
0.000461932
2.28593e-05
2.48031e-07
4.51028e-10
8.20106e-13
6.99747e-13
7.04173e-13
7.0514e-13
7.05321e-13
7.05375e-13
7.05722e-13
7.077e-13
7.10029e-13
7.28921e-13
7.44678e-13
9.08722e-13
9.95654e-13
3.19814e-12
3.73433e-12
0.00168819
0.000460365
2.27261e-05
2.46081e-07
4.46106e-10
8.17903e-13
6.99748e-13
7.04173e-13
7.0514e-13
7.05321e-13
7.05375e-13
7.05724e-13
7.07702e-13
7.10031e-13
7.28925e-13
7.44682e-13
9.08731e-13
9.95663e-13
3.19817e-12
3.73435e-12
0.00168733
0.000460074
2.2704e-05
2.45767e-07
4.45305e-10
8.17538e-13
6.99749e-13
7.04174e-13
7.0514e-13
7.05321e-13
7.05376e-13
7.05724e-13
7.07702e-13
7.10031e-13
7.28925e-13
7.44683e-13
9.08732e-13
9.95663e-13
3.19817e-12
3.73435e-12
0.00168548
0.000459346
2.26436e-05
2.44895e-07
4.43116e-10
8.16554e-13
6.9975e-13
7.04174e-13
7.0514e-13
7.05321e-13
7.05376e-13
7.05724e-13
7.07702e-13
7.10031e-13
7.28926e-13
7.44683e-13
9.08733e-13
9.95664e-13
3.19818e-12
3.73435e-12
0.00168513
0.000459228
2.26346e-05
2.44768e-07
4.4279e-10
8.16405e-13
6.9975e-13
7.04174e-13
7.0514e-13
7.05321e-13
7.05376e-13
7.05724e-13
7.07702e-13
7.10031e-13
7.28926e-13
7.44683e-13
9.08733e-13
9.95664e-13
3.19818e-12
3.73435e-12
0.00168461
0.000459024
2.26177e-05
2.44524e-07
4.42179e-10
8.1613e-13
6.9975e-13
7.04174e-13
7.0514e-13
7.05321e-13
7.05375e-13
7.05724e-13
7.07702e-13
7.10031e-13
7.28925e-13
7.44683e-13
9.08732e-13
9.95663e-13
3.19817e-12
3.73435e-12
0.00168461
0.000459024
2.26177e-05
2.44524e-07
4.42179e-10
8.1613e-13
6.9975e-13
7.04174e-13
7.0514e-13
7.05321e-13
7.05375e-13
7.05724e-13
7.07702e-13
7.10031e-13
7.28925e-13
7.44683e-13
9.08732e-13
9.95663e-13
3.19817e-12
3.73435e-12
0.00168513
0.000459228
2.26346e-05
2.44768e-07
4.4279e-10
8.16405e-13
6.9975e-13
7.04174e-13
7.0514e-13
7.05321e-13
7.05376e-13
7.05724e-13
7.07702e-13
7.10031e-13
7.28926e-13
7.44683e-13
9.08733e-13
9.95664e-13
3.19818e-12
3.73435e-12
0.00168548
0.000459346
2.26436e-05
2.44895e-07
4.43116e-10
8.16554e-13
6.9975e-13
7.04174e-13
7.0514e-13
7.05321e-13
7.05376e-13
7.05724e-13
7.07702e-13
7.10031e-13
7.28926e-13
7.44683e-13
9.08733e-13
9.95664e-13
3.19818e-12
3.73435e-12
0.00168733
0.000460074
2.2704e-05
2.45767e-07
4.45305e-10
8.17538e-13
6.99749e-13
7.04174e-13
7.0514e-13
7.05321e-13
7.05376e-13
7.05724e-13
7.07702e-13
7.10031e-13
7.28925e-13
7.44683e-13
9.08732e-13
9.95663e-13
3.19817e-12
3.73435e-12
0.00168819
0.000460365
2.27261e-05
2.46081e-07
4.46106e-10
8.17903e-13
6.99748e-13
7.04173e-13
7.0514e-13
7.05321e-13
7.05375e-13
7.05724e-13
7.07702e-13
7.10031e-13
7.28925e-13
7.44682e-13
9.08731e-13
9.95663e-13
3.19817e-12
3.73435e-12
0.00169208
0.000461932
2.28593e-05
2.48031e-07
4.51028e-10
8.20106e-13
6.99747e-13
7.04173e-13
7.0514e-13
7.05321e-13
7.05375e-13
7.05722e-13
7.077e-13
7.10029e-13
7.28921e-13
7.44678e-13
9.08722e-13
9.95654e-13
3.19814e-12
3.73433e-12
0.00169357
0.000462447
2.28996e-05
2.48614e-07
4.52515e-10
8.20781e-13
6.99747e-13
7.04173e-13
7.0514e-13
7.05321e-13
7.05375e-13
7.05722e-13
7.07699e-13
7.10028e-13
7.2892e-13
7.44676e-13
9.08717e-13
9.95648e-13
3.19812e-12
3.73431e-12
0.00169243
0.000463212
2.30582e-05
2.51274e-07
4.59442e-10
8.23716e-13
6.99752e-13
7.04173e-13
7.05138e-13
7.05318e-13
7.05371e-13
7.05693e-13
7.07667e-13
7.09992e-13
7.28861e-13
7.44606e-13
9.08539e-13
9.95459e-13
3.19719e-12
3.7335e-12
0.00169213
0.000463288
2.30804e-05
2.51638e-07
4.60389e-10
8.24116e-13
6.99755e-13
7.04173e-13
7.05138e-13
7.05318e-13
7.0537e-13
7.05687e-13
7.07659e-13
7.09983e-13
7.28845e-13
7.44587e-13
9.08486e-13
9.95404e-13
3.1969e-12
3.73321e-12
0.00157704
0.000429648
2.09731e-05
2.21925e-07
3.88267e-10
7.91759e-13
6.99897e-13
7.04213e-13
7.05155e-13
7.05331e-13
7.05395e-13
7.05786e-13
7.07715e-13
7.09998e-13
7.28532e-13
7.44084e-13
9.05799e-13
9.92135e-13
3.16796e-12
3.69781e-12
0.0188358
0.00672495
0.000476664
6.50773e-06
1.44108e-08
3.01601e-11
2.53115e-11
2.54853e-11
2.55234e-11
2.55306e-11
2.55331e-11
2.55476e-11
2.56185e-11
2.57019e-11
2.63776e-11
2.69407e-11
3.27949e-11
3.58891e-11
1.13707e-10
1.32255e-10
0.0198359
0.00713622
0.00051637
7.24836e-06
1.66646e-08
3.14154e-11
2.53058e-11
2.54837e-11
2.55227e-11
2.55301e-11
2.55323e-11
2.55441e-11
2.56166e-11
2.57015e-11
2.63892e-11
2.69592e-11
3.2893e-11
3.6008e-11
1.14745e-10
1.3352e-10
0.0198361
0.00713426
0.000515792
7.23646e-06
1.66271e-08
3.13963e-11
2.53057e-11
2.54837e-11
2.55227e-11
2.55302e-11
2.55323e-11
2.55443e-11
2.56169e-11
2.57018e-11
2.63898e-11
2.69599e-11
3.28949e-11
3.601e-11
1.14755e-10
1.3353e-10
0.0198435
0.00712238
0.000512119
7.15677e-06
1.63711e-08
3.1262e-11
2.53054e-11
2.54837e-11