/*--------------------------------*- C++ -*----------------------------------*\
  =========                 |
  \\      /  F ield         | OpenFOAM: The Open Source CFD Toolbox
   \\    /   O peration     | Website:  https://openfoam.org
    \\  /    A nd           | Version:  8
     \\/     M anipulation  |
\*---------------------------------------------------------------------------*/
FoamFile
{
    version     2.0;
    format      ascii;
    class       volScalarField;
    location    "2.5";
    object      p;
}
// * * * * * * * * * * * * * * * * * * * * * * * * * * * * * * * * * * * * * //

dimensions      [0 2 -2 0 0 0 0];

internalField   nonuniform List<scalar> 
180000
(
0.000913271
0.000851532
0.000890857
0.000758134
0.000828711
0.000898749
0.000837246
0.000876285
0.000744903
0.00081431
0.000898048
0.000836577
0.000875582
0.000744317
0.000813647
0.000893956
0.000832643
0.000871475
0.00074085
0.000809789
0.000893533
0.00083224
0.000871047
0.000740497
0.000809387
0.000891787
0.000830573
0.00086929
0.000739033
0.000807739
0.000891574
0.00083037
0.000869073
0.000738855
0.000807535
0.00089083
0.00082966
0.000868322
0.000738231
0.00080683
0.000890744
0.000829579
0.000868235
0.000738159
0.000806748
0.000890538
0.000829381
0.000868027
0.000737986
0.000806551
0.000890538
0.000829381
0.000868027
0.000737986
0.000806551
0.000890744
0.000829579
0.000868235
0.000738159
0.000806748
0.00089083
0.00082966
0.000868322
0.000738231
0.00080683
0.000891574
0.00083037
0.000869073
0.000738855
0.000807535
0.000891787
0.000830573
0.00086929
0.000739033
0.000807739
0.000893533
0.00083224
0.000871047
0.000740497
0.000809387
0.000893956
0.000832643
0.000871475
0.00074085
0.000809789
0.000898048
0.000836577
0.000875582
0.000744317
0.000813647
0.000898749
0.000837246
0.000876285
0.000744903
0.00081431
0.000913271
0.000851532
0.000890857
0.000758134
0.000828711
0.000740081
0.000712279
0.00073093
0.000662114
0.000701485
0.000733942
0.000705327
0.00072443
0.000654468
0.000694137
0.00073364
0.000704995
0.000724111
0.000654124
0.000693793
0.000731831
0.000703004
0.000722198
0.000652052
0.000691749
0.000731644
0.0007028
0.000722
0.000651841
0.000691536
0.000730865
0.00070195
0.000721174
0.000650962
0.000690657
0.00073077
0.000701847
0.000721073
0.000650855
0.000690548
0.000730437
0.000701484
0.000720718
0.000650479
0.000690171
0.000730399
0.000701442
0.000720678
0.000650436
0.000690127
0.000730306
0.000701341
0.000720579
0.000650332
0.000690022
0.000730306
0.000701341
0.000720579
0.000650332
0.000690022
0.000730399
0.000701442
0.000720678
0.000650436
0.000690127
0.000730437
0.000701484
0.000720718
0.000650479
0.000690171
0.00073077
0.000701847
0.000721073
0.000650855
0.000690548
0.000730865
0.00070195
0.000721174
0.000650962
0.000690657
0.000731644
0.0007028
0.000722
0.000651841
0.000691536
0.000731831
0.000703004
0.000722198
0.000652052
0.000691749
0.00073364
0.000704995
0.000724111
0.000654124
0.000693793
0.000733942
0.000705327
0.00072443
0.000654468
0.000694137
0.000740081
0.000712279
0.00073093
0.000662114
0.000701485
0.000531761
0.000509448
0.000524855
0.000470694
0.000504005
0.000526769
0.000504087
0.000519684
0.000465112
0.000498411
0.000526524
0.000503831
0.000519431
0.000464861
0.000498148
0.000525026
0.000502262
0.000517879
0.000463306
0.000496551
0.000524873
0.000502103
0.00051772
0.00046315
0.000496387
0.000524229
0.000501434
0.00051705
0.000462491
0.0004957
0.000524152
0.000501353
0.000516969
0.000462411
0.000495616
0.000523876
0.000501067
0.000516682
0.000462129
0.000495321
0.000523845
0.000501035
0.00051665
0.000462097
0.000495287
0.000523768
0.000500955
0.00051657
0.000462019
0.000495205
0.000523768
0.000500955
0.00051657
0.000462019
0.000495205
0.000523845
0.000501035
0.00051665
0.000462097
0.000495287
0.000523876
0.000501067
0.000516682
0.000462129
0.000495321
0.000524152
0.000501353
0.000516969
0.000462411
0.000495616
0.000524229
0.000501434
0.00051705
0.000462491
0.0004957
0.000524873
0.000502103
0.00051772
0.00046315
0.000496387
0.000525026
0.000502262
0.000517879
0.000463306
0.000496551
0.000526524
0.000503831
0.000519431
0.000464861
0.000498148
0.000526769
0.000504087
0.000519684
0.000465112
0.000498411
0.000531761
0.000509448
0.000524855
0.000470694
0.000504005
0.00049818
0.000471797
0.000490096
0.000428622
0.000468577
0.000492152
0.000465691
0.00048399
0.000422718
0.000462339
0.000491855
0.000465399
0.00048369
0.00042245
0.000462043
0.000490042
0.000463601
0.000481852
0.000420785
0.000460243
0.000489858
0.00046342
0.000481664
0.000420619
0.000460058
0.000489081
0.000462655
0.000480873
0.000419914
0.000459286
0.000488987
0.000462563
0.000480777
0.000419829
0.000459191
0.000488655
0.000462236
0.000480439
0.000419528
0.00045886
0.000488618
0.000462199
0.0004804
0.000419494
0.000458822
0.000488525
0.000462109
0.000480306
0.00041941
0.00045873
0.000488525
0.000462109
0.000480306
0.00041941
0.00045873
0.000488618
0.000462199
0.0004804
0.000419494
0.000458822
0.000488655
0.000462236
0.000480439
0.000419528
0.00045886
0.000488987
0.000462563
0.000480777
0.000419829
0.000459191
0.000489081
0.000462655
0.000480873
0.000419914
0.000459286
0.000489858
0.00046342
0.000481664
0.000420619
0.000460058
0.000490042
0.000463601
0.000481852
0.000420785
0.000460243
0.000491855
0.000465399
0.00048369
0.00042245
0.000462043
0.000492152
0.000465691
0.00048399
0.000422718
0.000462339
0.00049818
0.000471797
0.000490096
0.000428622
0.000468577
0.000521482
0.000493596
0.000513287
0.000447607
0.000493221
0.000515134
0.000487161
0.000506856
0.000441393
0.00048667
0.000514818
0.00048685
0.000506537
0.000441109
0.000486355
0.000512879
0.000484926
0.00050457
0.000439329
0.000484428
0.000512682
0.000484733
0.000504369
0.000439151
0.000484231
0.000511851
0.000483914
0.000503523
0.000438396
0.000483403
0.000511751
0.000483816
0.000503421
0.000438306
0.000483302
0.000511396
0.000483466
0.000503058
0.000437983
0.000482947
0.000511355
0.000483426
0.000503017
0.000437947
0.000482907
0.000511257
0.000483329
0.000502916
0.000437857
0.000482808
0.000511257
0.000483329
0.000502916
0.000437857
0.000482808
0.000511355
0.000483426
0.000503017
0.000437947
0.000482907
0.000511396
0.000483466
0.000503058
0.000437983
0.000482947
0.000511751
0.000483816
0.000503421
0.000438306
0.000483302
0.000511851
0.000483914
0.000503523
0.000438396
0.000483403
0.000512682
0.000484733
0.000504369
0.000439151
0.000484231
0.000512879
0.000484926
0.00050457
0.000439329
0.000484428
0.000514818
0.00048685
0.000506537
0.000441109
0.000486355
0.000515134
0.000487161
0.000506856
0.000441393
0.00048667
0.000521482
0.000493596
0.000513287
0.000447607
0.000493221
0.000534139
0.000506875
0.000526619
0.000461112
0.000510321
0.000527985
0.000500589
0.000520369
0.000454979
0.000503925
0.000527676
0.000500282
0.000520055
0.000454695
0.000503613
0.000525757
0.000498364
0.000518103
0.000452902
0.000501682
0.000525563
0.000498172
0.000517905
0.000452724
0.000501486
0.000524738
0.000497354
0.000517064
0.000451962
0.000500656
0.000524639
0.000497256
0.000516962
0.000451871
0.000500555
0.000524287
0.000496906
0.000516602
0.000451546
0.000500199
0.000524247
0.000496867
0.000516561
0.000451509
0.000500158
0.000524149
0.00049677
0.000516461
0.000451419
0.000500059
0.000524149
0.00049677
0.000516461
0.000451419
0.000500059
0.000524247
0.000496867
0.000516561
0.000451509
0.000500158
0.000524287
0.000496906
0.000516602
0.000451546
0.000500199
0.000524639
0.000497256
0.000516962
0.000451871
0.000500555
0.000524738
0.000497354
0.000517064
0.000451962
0.000500656
0.000525563
0.000498172
0.000517905
0.000452724
0.000501486
0.000525757
0.000498364
0.000518103
0.000452902
0.000501682
0.000527676
0.000500282
0.000520055
0.000454695
0.000503613
0.000527985
0.000500589
0.000520369
0.000454979
0.000503925
0.000534139
0.000506875
0.000526619
0.000461112
0.000510321
0.000533909
0.000507413
0.000527092
0.000462514
0.000515007
0.00052797
0.000501334
0.000521059
0.000456564
0.000508832
0.000527669
0.000501035
0.000520753
0.000456285
0.000508526
0.000525779
0.000499142
0.00051883
0.000454509
0.000506614
0.000525589
0.000498954
0.000518635
0.000454333
0.00050642
0.000524775
0.000498145
0.000517805
0.000453577
0.000505597
0.000524678
0.000498049
0.000517706
0.000453488
0.000505497
0.00052433
0.000497703
0.00051735
0.000453164
0.000505144
0.000524291
0.000497665
0.00051731
0.000453128
0.000505104
0.000524195
0.000497569
0.000517211
0.000453038
0.000505005
0.000524195
0.000497569
0.000517211
0.000453038
0.000505005
0.000524291
0.000497665
0.00051731
0.000453128
0.000505104
0.00052433
0.000497703
0.00051735
0.000453164
0.000505144
0.000524678
0.000498049
0.000517706
0.000453488
0.000505497
0.000524775
0.000498145
0.000517805
0.000453577
0.000505597
0.000525589
0.000498954
0.000518635
0.000454333
0.00050642
0.000525779
0.000499142
0.00051883
0.000454509
0.000506614
0.000527669
0.000501035
0.000520753
0.000456285
0.000508526
0.00052797
0.000501334
0.000521059
0.000456564
0.000508832
0.000533909
0.000507413
0.000527092
0.000462514
0.000515007
0.000531195
0.000505113
0.000524936
0.000460789
0.000516636
0.000525382
0.000499173
0.000519035
0.000454981
0.000510611
0.000525085
0.000498878
0.000518734
0.000454707
0.000510309
0.0005232
0.000496993
0.000516818
0.000452938
0.0005084
0.000523012
0.000496806
0.000516625
0.000452763
0.000508207
0.0005222
0.000496
0.000515797
0.00045201
0.000507384
0.000522104
0.000495905
0.000515698
0.000451921
0.000507285
0.000521756
0.00049556
0.000515343
0.000451598
0.000506932
0.000521717
0.000495522
0.000515303
0.000451562
0.000506892
0.000521621
0.000495426
0.000515204
0.000451473
0.000506793
0.000521621
0.000495426
0.000515204
0.000451473
0.000506793
0.000521717
0.000495522
0.000515303
0.000451562
0.000506892
0.000521756
0.00049556
0.000515343
0.000451598
0.000506932
0.000522104
0.000495905
0.000515698
0.000451921
0.000507285
0.0005222
0.000496
0.000515797
0.00045201
0.000507384
0.000523012
0.000496806
0.000516625
0.000452763
0.000508207
0.0005232
0.000496993
0.000516818
0.000452938
0.0005084
0.000525085
0.000498878
0.000518734
0.000454707
0.000510309
0.000525382
0.000499173
0.000519035
0.000454981
0.000510611
0.000531195
0.000505113
0.000524936
0.000460789
0.000516636
0.000529895
0.000504081
0.000524129
0.000460181
0.000519023
0.000524174
0.000498243
0.000518327
0.00045448
0.000513108
0.000523879
0.000497951
0.000518028
0.000454209
0.000512808
0.000521992
0.000496065
0.000516111
0.000452439
0.000510893
0.000521804
0.000495879
0.000515919
0.000452265
0.000510701
0.000520989
0.000495072
0.000515089
0.000451511
0.000509874
0.000520893
0.000494977
0.00051499
0.000451422
0.000509775
0.000520544
0.000494631
0.000514634
0.000451098
0.00050942
0.000520506
0.000494593
0.000514594
0.000451063
0.00050938
0.000520409
0.000494497
0.000514495
0.000450973
0.000509281
0.000520409
0.000494497
0.000514495
0.000450973
0.000509281
0.000520506
0.000494593
0.000514594
0.000451063
0.00050938
0.000520544
0.000494631
0.000514634
0.000451098
0.00050942
0.000520893
0.000494977
0.00051499
0.000451422
0.000509775
0.000520989
0.000495072
0.000515089
0.000451511
0.000509874
0.000521804
0.000495879
0.000515919
0.000452265
0.000510701
0.000521992
0.000496065
0.000516111
0.000452439
0.000510893
0.000523879
0.000497951
0.000518028
0.000454209
0.000512808
0.000524174
0.000498243
0.000518327
0.00045448
0.000513108
0.000529895
0.000504081
0.000524129
0.000460181
0.000519023
0.000529529
0.000503989
0.000524247
0.000460571
0.000521696
0.000523903
0.000498253
0.000518546
0.000454971
0.000515877
0.00052361
0.000497964
0.000518249
0.000454702
0.000515579
0.000521722
0.000496078
0.000516332
0.00045293
0.000513659
0.000521534
0.000495893
0.000516141
0.000452758
0.000513467
0.000520719
0.000495084
0.000515309
0.000452001
0.000512637
0.000520623
0.000494989
0.000515211
0.000451912
0.000512538
0.000520273
0.000494643
0.000514854
0.000451588
0.000512181
0.000520234
0.000494605
0.000514814
0.000451552
0.000512141
0.000520137
0.000494509
0.000514714
0.000451462
0.000512042
0.000520137
0.000494509
0.000514714
0.000451462
0.000512042
0.000520234
0.000494605
0.000514814
0.000451552
0.000512141
0.000520273
0.000494643
0.000514854
0.000451588
0.000512181
0.000520623
0.000494989
0.000515211
0.000451912
0.000512538
0.000520719
0.000495084
0.000515309
0.000452001
0.000512637
0.000521534
0.000495893
0.000516141
0.000452758
0.000513467
0.000521722
0.000496078
0.000516332
0.00045293
0.000513659
0.00052361
0.000497964
0.000518249
0.000454702
0.000515579
0.000523903
0.000498253
0.000518546
0.000454971
0.000515877
0.000529529
0.000503989
0.000524247
0.000460571
0.000521696
0.000529252
0.000504006
0.000524449
0.000461159
0.00052351
0.000523726
0.000498376
0.000518852
0.000455661
0.000517775
0.000523436
0.000498089
0.000518559
0.000455394
0.000517479
0.000521549
0.000496206
0.000516644
0.000453623
0.000515554
0.000521363
0.000496022
0.000516453
0.00045345
0.000515362
0.000520546
0.000495212
0.000515621
0.000452692
0.000514529
0.000520451
0.000495118
0.000515523
0.000452604
0.000514429
0.0005201
0.000494771
0.000515165
0.000452279
0.000514071
0.000520062
0.000494734
0.000515126
0.000452243
0.000514031
0.000519964
0.000494637
0.000515026
0.000452152
0.000513931
0.000519964
0.000494637
0.000515026
0.000452152
0.000513931
0.000520062
0.000494734
0.000515126
0.000452243
0.000514031
0.0005201
0.000494771
0.000515165
0.000452279
0.000514071
0.000520451
0.000495118
0.000515523
0.000452604
0.000514429
0.000520546
0.000495212
0.000515621
0.000452692
0.000514529
0.000521363
0.000496022
0.000516453
0.00045345
0.000515362
0.000521549
0.000496206
0.000516644
0.000453623
0.000515554
0.000523436
0.000498089
0.000518559
0.000455394
0.000517479
0.000523726
0.000498376
0.000518852
0.000455661
0.000517775
0.000529252
0.000504006
0.000524449
0.000461159
0.00052351
0.000528859
0.000503903
0.000524518
0.000461642
0.000522237
0.000523432
0.000498379
0.000519026
0.000456245
0.0005166
0.000523145
0.000498095
0.000518736
0.000455981
0.000516307
0.000521262
0.000496215
0.000516823
0.00045421
0.000514386
0.000521076
0.000496032
0.000516634
0.000454039
0.000514195
0.000520259
0.000495222
0.000515802
0.00045328
0.000513361
0.000520163
0.000495128
0.000515704
0.000453191
0.000513262
0.000519813
0.000494781
0.000515346
0.000452866
0.000512903
0.000519774
0.000494744
0.000515307
0.00045283
0.000512864
0.000519677
0.000494647
0.000515207
0.000452739
0.000512763
0.000519677
0.000494647
0.000515207
0.000452739
0.000512763
0.000519774
0.000494744
0.000515307
0.00045283
0.000512864
0.000519813
0.000494781
0.000515346
0.000452866
0.000512903
0.000520163
0.000495128
0.000515704
0.000453191
0.000513262
0.000520259
0.000495222
0.000515802
0.00045328
0.000513361
0.000521076
0.000496032
0.000516634
0.000454039
0.000514195
0.000521262
0.000496215
0.000516823
0.00045421
0.000514386
0.000523145
0.000498095
0.000518736
0.000455981
0.000516307
0.000523432
0.000498379
0.000519026
0.000456245
0.0005166
0.000528859
0.000503903
0.000524518
0.000461642
0.000522237
0.000528429
0.00050375
0.00052453
0.000461994
0.000520086
0.000523098
0.000498327
0.000519139
0.000456697
0.000514551
0.000522814
0.000498047
0.000518852
0.000456436
0.000514261
0.000520933
0.00049617
0.000516943
0.000454667
0.000512346
0.000520748
0.000495988
0.000516754
0.000454496
0.000512156
0.00051993
0.000495178
0.000515922
0.000453736
0.000511323
0.000519835
0.000495084
0.000515824
0.000453648
0.000511225
0.000519484
0.000494737
0.000515466
0.000453321
0.000510866
0.000519446
0.000494699
0.000515427
0.000453286
0.000510826
0.000519348
0.000494603
0.000515327
0.000453195
0.000510726
0.000519348
0.000494603
0.000515327
0.000453195
0.000510726
0.000519446
0.000494699
0.000515427
0.000453286
0.000510826
0.000519484
0.000494737
0.000515466
0.000453321
0.000510866
0.000519835
0.000495084
0.000515824
0.000453648
0.000511225
0.00051993
0.000495178
0.000515922
0.000453736
0.000511323
0.000520748
0.000495988
0.000516754
0.000454496
0.000512156
0.000520933
0.00049617
0.000516943
0.000454667
0.000512346
0.000522814
0.000498047
0.000518852
0.000456436
0.000514261
0.000523098
0.000498327
0.000519139
0.000456697
0.000514551
0.000528429
0.00050375
0.00052453
0.000461994
0.000520086
0.000528022
0.000503608
0.000524548
0.000462264
0.000518197
0.000522785
0.000498285
0.000519256
0.000457064
0.000512761
0.000522503
0.000498007
0.000518971
0.000456805
0.000512474
0.000520625
0.000496134
0.000517066
0.000455038
0.000510565
0.000520441
0.000495953
0.000516878
0.000454868
0.000510376
0.000519623
0.000495142
0.000516045
0.000454107
0.000509544
0.000519528
0.000495049
0.000515948
0.000454019
0.000509446
0.000519177
0.000494702
0.00051559
0.000453693
0.000509087
0.000519139
0.000494664
0.000515551
0.000453657
0.000509048
0.000519041
0.000494568
0.000515451
0.000453566
0.000508948
0.000519041
0.000494568
0.000515451
0.000453566
0.000508948
0.000519139
0.000494664
0.000515551
0.000453657
0.000509048
0.000519177
0.000494702
0.00051559
0.000453693
0.000509087
0.000519528
0.000495049
0.000515948
0.000454019
0.000509446
0.000519623
0.000495142
0.000516045
0.000454107
0.000509544
0.000520441
0.000495953
0.000516878
0.000454868
0.000510376
0.000520625
0.000496134
0.000517066
0.000455038
0.000510565
0.000522503
0.000498007
0.000518971
0.000456805
0.000512474
0.000522785
0.000498285
0.000519256
0.000457064
0.000512761
0.000528022
0.000503608
0.000524548
0.000462264
0.000518197
0.000527645
0.000503488
0.000524583
0.000462472
0.000516572
0.000522501
0.000498262
0.000519387
0.000457368
0.000511231
0.000522222
0.000497987
0.000519105
0.000457111
0.000510948
0.000520346
0.000496117
0.000517203
0.000455347
0.000509044
0.000520163
0.000495937
0.000517016
0.000455178
0.000508857
0.000519345
0.000495127
0.000516183
0.000454417
0.000508025
0.000519251
0.000495034
0.000516087
0.000454329
0.000507928
0.000518899
0.000494686
0.000515728
0.000454002
0.000507569
0.000518861
0.000494649
0.000515689
0.000453967
0.00050753
0.000518763
0.000494552
0.000515589
0.000453876
0.00050743
0.000518763
0.000494552
0.000515589
0.000453876
0.00050743
0.000518861
0.000494649
0.000515689
0.000453967
0.00050753
0.000518899
0.000494686
0.000515728
0.000454002
0.000507569
0.000519251
0.000495034
0.000516087
0.000454329
0.000507928
0.000519345
0.000495127
0.000516183
0.000454417
0.000508025
0.000520163
0.000495937
0.000517016
0.000455178
0.000508857
0.000520346
0.000496117
0.000517203
0.000455347
0.000509044
0.000522222
0.000497987
0.000519105
0.000457111
0.000510948
0.000522501
0.000498262
0.000519387
0.000457368
0.000511231
0.000527645
0.000503488
0.000524583
0.000462472
0.000516572
0.000527292
0.000503382
0.000524627
0.000462619
0.000515011
0.000522237
0.000498251
0.000519525
0.00045761
0.000509763
0.00052196
0.000497978
0.000519246
0.000457356
0.000509483
0.000520088
0.000496113
0.000517348
0.000455595
0.000507585
0.000519906
0.000495934
0.000517163
0.000455427
0.000507399
0.000519087
0.000495123
0.00051633
0.000454665
0.000506568
0.000518994
0.000495031
0.000516234
0.000454578
0.000506471
0.000518641
0.000494683
0.000515874
0.00045425
0.000506113
0.000518604
0.000494646
0.000515836
0.000454215
0.000506073
0.000518505
0.000494549
0.000515735
0.000454124
0.000505973
0.000518505
0.000494549
0.000515735
0.000454124
0.000505973
0.000518604
0.000494646
0.000515836
0.000454215
0.000506073
0.000518641
0.000494683
0.000515874
0.00045425
0.000506113
0.000518994
0.000495031
0.000516234
0.000454578
0.000506471
0.000519087
0.000495123
0.00051633
0.000454665
0.000506568
0.000519906
0.000495934
0.000517163
0.000455427
0.000507399
0.000520088
0.000496113
0.000517348
0.000455595
0.000507585
0.00052196
0.000497978
0.000519246
0.000457356
0.000509483
0.000522237
0.000498251
0.000519525
0.00045761
0.000509763
0.000527292
0.000503382
0.000524627
0.000462619
0.000515011
0.000526955
0.000503285
0.000524677
0.000462703
0.000513444
0.000521988
0.000498247
0.000519669
0.000457787
0.000508287
0.000521714
0.000497977
0.000519392
0.000457535
0.000508009
0.000519846
0.000496116
0.000517499
0.000455778
0.000506118
0.000519665
0.000495938
0.000517314
0.000455611
0.000505933
0.000518846
0.000495127
0.000516481
0.000454849
0.000505103
0.000518753
0.000495035
0.000516385
0.000454762
0.000505006
0.0005184
0.000494687
0.000516026
0.000454434
0.000504648
0.000518363
0.00049465
0.000515987
0.000454399
0.000504609
0.000518264
0.000494553
0.000515887
0.000454308
0.000504509
0.000518264
0.000494553
0.000515887
0.000454308
0.000504509
0.000518363
0.00049465
0.000515987
0.000454399
0.000504609
0.0005184
0.000494687
0.000516026
0.000454434
0.000504648
0.000518753
0.000495035
0.000516385
0.000454762
0.000505006
0.000518846
0.000495127
0.000516481
0.000454849
0.000505103
0.000519665
0.000495938
0.000517314
0.000455611
0.000505933
0.000519846
0.000496116
0.000517499
0.000455778
0.000506118
0.000521714
0.000497977
0.000519392
0.000457535
0.000508009
0.000521988
0.000498247
0.000519669
0.000457787
0.000508287
0.000526955
0.000503285
0.000524677
0.000462703
0.000513444
0.000526636
0.000503198
0.000524736
0.000462723
0.000511882
0.000521755
0.00049825
0.000519817
0.000457899
0.000506814
0.000521484
0.000497983
0.000519543
0.000457649
0.000506539
0.00051962
0.000496126
0.000517654
0.000455897
0.000504655
0.00051944
0.000495949
0.000517471
0.00045573
0.000504471
0.000518621
0.000495139
0.000516638
0.000454968
0.000503641
0.000518528
0.000495047
0.000516542
0.000454882
0.000503545
0.000518175
0.000494699
0.000516183
0.000454554
0.000503187
0.000518137
0.000494662
0.000516144
0.000454519
0.000503148
0.000518039
0.000494565
0.000516044
0.000454428
0.000503048
0.000518039
0.000494565
0.000516044
0.000454428
0.000503048
0.000518137
0.000494662
0.000516144
0.000454519
0.000503148
0.000518175
0.000494699
0.000516183
0.000454554
0.000503187
0.000518528
0.000495047
0.000516542
0.000454882
0.000503545
0.000518621
0.000495139
0.000516638
0.000454968
0.000503641
0.00051944
0.000495949
0.000517471
0.00045573
0.000504471
0.00051962
0.000496126
0.000517654
0.000455897
0.000504655
0.000521484
0.000497983
0.000519543
0.000457649
0.000506539
0.000521755
0.00049825
0.000519817
0.000457899
0.000506814
0.000526636
0.000503198
0.000524736
0.000462723
0.000511882
0.000526334
0.000503121
0.000524803
0.000462681
0.000510339
0.000521538
0.000498261
0.000519973
0.000457947
0.000505357
0.000521268
0.000497997
0.000519702
0.0004577
0.000505085
0.000519409
0.000496145
0.000517818
0.000455952
0.000503208
0.00051923
0.000495969
0.000517636
0.000455787
0.000503025
0.000518411
0.000495159
0.000516803
0.000455025
0.000502196
0.000518318
0.000495068
0.000516708
0.000454939
0.000502101
0.000517965
0.000494719
0.000516348
0.000454611
0.000501743
0.000517928
0.000494682
0.000516309
0.000454577
0.000501704
0.000517829
0.000494585
0.000516209
0.000454485
0.000501604
0.000517829
0.000494585
0.000516209
0.000454485
0.000501604
0.000517928
0.000494682
0.000516309
0.000454577
0.000501704
0.000517965
0.000494719
0.000516348
0.000454611
0.000501743
0.000518318
0.000495068
0.000516708
0.000454939
0.000502101
0.000518411
0.000495159
0.000516803
0.000455025
0.000502196
0.00051923
0.000495969
0.000517636
0.000455787
0.000503025
0.000519409
0.000496145
0.000517818
0.000455952
0.000503208
0.000521268
0.000497997
0.000519702
0.0004577
0.000505085
0.000521538
0.000498261
0.000519973
0.000457947
0.000505357
0.000526334
0.000503121
0.000524803
0.000462681
0.000510339
0.00052605
0.000503054
0.000524882
0.000462578
0.000508749
0.000521336
0.000498281
0.000520139
0.000457932
0.000503851
0.000521069
0.000498018
0.00051987
0.000457688
0.000503582
0.000519214
0.000496172
0.000517991
0.000455945
0.000501713
0.000519036
0.000495997
0.000517809
0.000455781
0.000501531
0.000518217
0.000495187
0.000516977
0.00045502
0.000500703
0.000518125
0.000495096
0.000516882
0.000454934
0.000500608
0.000517772
0.000494748
0.000516522
0.000454606
0.00050025
0.000517734
0.000494711
0.000516484
0.000454572
0.000500212
0.000517636
0.000494614
0.000516383
0.00045448
0.000500112
0.000517636
0.000494614
0.000516383
0.00045448
0.000500112
0.000517734
0.000494711
0.000516484
0.000454572
0.000500212
0.000517772
0.000494748
0.000516522
0.000454606
0.00050025
0.000518125
0.000495096
0.000516882
0.000454934
0.000500608
0.000518217
0.000495187
0.000516977
0.00045502
0.000500703
0.000519036
0.000495997
0.000517809
0.000455781
0.000501531
0.000519214
0.000496172
0.000517991
0.000455945
0.000501713
0.000521069
0.000498018
0.00051987
0.000457688
0.000503582
0.000521336
0.000498281
0.000520139
0.000457932
0.000503851
0.00052605
0.000503054
0.000524882
0.000462578
0.000508749
-1.65358e-05
1.60058e-05
2.97534e-06
7.28582e-07
2.59952e-07
1.82572e-07
1.65832e-07
1.62623e-07
1.61845e-07
1.61672e-07
1.61618e-07
1.61594e-07
1.61496e-07
1.61386e-07
1.60519e-07
1.59851e-07
1.53415e-07
1.50645e-07
1.11916e-07
1.07812e-07
-1.66158e-05
1.5971e-05
2.99471e-06
7.34879e-07
2.61523e-07
1.82956e-07
1.65907e-07
1.62628e-07
1.6183e-07
1.61653e-07
1.61597e-07
1.61572e-07
1.61471e-07
1.61359e-07
1.60478e-07
1.59803e-07
1.53295e-07
1.50518e-07
1.11616e-07
1.076e-07
-1.66111e-05
1.59626e-05
2.99223e-06
7.34572e-07
2.61471e-07
1.82952e-07
1.65907e-07
1.62628e-07
1.6183e-07
1.61652e-07
1.61596e-07
1.61572e-07
1.61471e-07
1.61359e-07
1.60477e-07
1.59802e-07
1.53293e-07
1.50516e-07
1.11613e-07
1.07598e-07
-1.65865e-05
1.5914e-05
2.97779e-06
7.32702e-07
2.6115e-07
1.82917e-07
1.65901e-07
1.62627e-07
1.61829e-07
1.61651e-07
1.61595e-07
1.6157e-07
1.6147e-07
1.61357e-07
1.60475e-07
1.59799e-07
1.53286e-07
1.50509e-07
1.11601e-07
1.07592e-07
-1.6583e-05
1.59082e-05
2.97579e-06
7.32389e-07
2.61084e-07
1.82907e-07
1.65899e-07
1.62626e-07
1.61829e-07
1.61651e-07
1.61595e-07
1.6157e-07
1.6147e-07
1.61357e-07
1.60475e-07
1.59799e-07
1.53286e-07
1.50509e-07
1.11601e-07
1.07591e-07
-1.65699e-05
1.58864e-05
2.96857e-06
7.31315e-07
2.60863e-07
1.82872e-07
1.65891e-07
1.62625e-07
1.61829e-07
1.61651e-07
1.61595e-07
1.6157e-07
1.61469e-07
1.61357e-07
1.60474e-07
1.59798e-07
1.53286e-07
1.50509e-07
1.11601e-07
1.07591e-07
-1.65682e-05
1.58834e-05
2.96757e-06
7.31156e-07
2.60828e-07
1.82866e-07
1.6589e-07
1.62625e-07
1.61829e-07
1.61651e-07
1.61595e-07
1.6157e-07
1.61469e-07
1.61357e-07
1.60474e-07
1.59798e-07
1.53286e-07
1.50509e-07
1.11601e-07
1.07591e-07
-1.65627e-05
1.58742e-05
2.96457e-06
7.30708e-07
2.60734e-07
1.82851e-07
1.65887e-07
1.62624e-07
1.61828e-07
1.61651e-07
1.61595e-07
1.6157e-07
1.61469e-07
1.61357e-07
1.60474e-07
1.59798e-07
1.53286e-07
1.50509e-07
1.11601e-07
1.07591e-07
-1.6562e-05
1.58731e-05
2.96418e-06
7.30646e-07
2.60721e-07
1.82849e-07
1.65886e-07
1.62624e-07
1.61828e-07
1.61651e-07
1.61595e-07
1.6157e-07
1.61469e-07
1.61357e-07
1.60474e-07
1.59798e-07
1.53286e-07
1.50509e-07
1.11601e-07
1.07591e-07
-1.65605e-05
1.58705e-05
2.96337e-06
7.30526e-07
2.60696e-07
1.82845e-07
1.65885e-07
1.62624e-07
1.61828e-07
1.61651e-07
1.61595e-07
1.6157e-07
1.61469e-07
1.61357e-07
1.60474e-07
1.59798e-07
1.53286e-07
1.50509e-07
1.11601e-07
1.07591e-07
-1.65605e-05
1.58705e-05
2.96337e-06
7.30526e-07
2.60696e-07
1.82845e-07
1.65885e-07
1.62624e-07
1.61828e-07
1.61651e-07
1.61595e-07
1.6157e-07
1.61469e-07
1.61357e-07
1.60474e-07
1.59798e-07
1.53286e-07
1.50509e-07
1.11601e-07
1.07591e-07
-1.6562e-05
1.58731e-05
2.96418e-06
7.30646e-07
2.60721e-07
1.82849e-07
1.65886e-07
1.62624e-07
1.61828e-07
1.61651e-07
1.61595e-07
1.6157e-07
1.61469e-07
1.61357e-07
1.60474e-07
1.59798e-07
1.53286e-07
1.50509e-07
1.11601e-07
1.07591e-07
-1.65627e-05
1.58742e-05
2.96457e-06
7.30708e-07
2.60734e-07
1.82851e-07
1.65887e-07
1.62624e-07
1.61828e-07
1.61651e-07
1.61595e-07
1.6157e-07
1.61469e-07
1.61357e-07
1.60474e-07
1.59798e-07
1.53286e-07
1.50509e-07
1.11601e-07
1.07591e-07
-1.65682e-05
1.58834e-05
2.96757e-06
7.31156e-07
2.60828e-07
1.82866e-07
1.6589e-07
1.62625e-07
1.61829e-07
1.61651e-07
1.61595e-07
1.6157e-07
1.61469e-07
1.61357e-07
1.60474e-07
1.59798e-07
1.53286e-07
1.50509e-07
1.11601e-07
1.07591e-07
-1.65699e-05
1.58864e-05
2.96857e-06
7.31315e-07
2.60863e-07
1.82872e-07
1.65891e-07
1.62625e-07
1.61829e-07
1.61651e-07
1.61595e-07
1.6157e-07
1.61469e-07
1.61357e-07
1.60474e-07
1.59798e-07
1.53286e-07
1.50509e-07
1.11601e-07
1.07591e-07
-1.6583e-05
1.59082e-05
2.97579e-06
7.32389e-07
2.61084e-07
1.82907e-07
1.65899e-07
1.62626e-07
1.61829e-07
1.61651e-07
1.61595e-07
1.6157e-07
1.6147e-07
1.61357e-07
1.60475e-07
1.59799e-07
1.53286e-07
1.50509e-07
1.11601e-07
1.07591e-07
-1.65865e-05
1.5914e-05
2.97779e-06
7.32702e-07
2.6115e-07
1.82917e-07
1.65901e-07
1.62627e-07
1.61829e-07
1.61651e-07
1.61595e-07
1.6157e-07
1.6147e-07
1.61357e-07
1.60475e-07
1.59799e-07
1.53286e-07
1.50509e-07
1.11601e-07
1.07592e-07
-1.66111e-05
1.59626e-05
2.99223e-06
7.34572e-07
2.61471e-07
1.82952e-07
1.65907e-07
1.62628e-07
1.6183e-07
1.61652e-07
1.61596e-07
1.61572e-07
1.61471e-07
1.61359e-07
1.60477e-07
1.59802e-07
1.53293e-07
1.50516e-07
1.11613e-07
1.07598e-07
-1.66158e-05
1.5971e-05
2.99471e-06
7.34879e-07
2.61523e-07
1.82956e-07
1.65907e-07
1.62628e-07
1.6183e-07
1.61653e-07
1.61597e-07
1.61572e-07
1.61471e-07
1.61359e-07
1.60478e-07
1.59803e-07
1.53295e-07
1.50518e-07
1.11616e-07
1.076e-07
-1.65358e-05
1.60058e-05
2.97534e-06
7.28582e-07
2.59952e-07
1.82572e-07
1.65832e-07
1.62623e-07
1.61845e-07
1.61672e-07
1.61618e-07
1.61594e-07
1.61496e-07
1.61386e-07
1.60519e-07
1.59851e-07
1.53415e-07
1.50645e-07
1.11916e-07
1.07812e-07
-1.61542e-05
1.61789e-05
3.00233e-06
7.34322e-07
2.61e-07
1.82809e-07
1.65868e-07
1.6271e-07
1.61937e-07
1.61761e-07
1.61706e-07
1.61682e-07
1.61582e-07
1.6147e-07
1.60564e-07
1.59833e-07
1.53333e-07
1.50537e-07
1.11321e-07
1.07188e-07
-1.6229e-05
1.61441e-05
3.02192e-06
7.40688e-07
2.62589e-07
1.83196e-07
1.65945e-07
1.62713e-07
1.61922e-07
1.61742e-07
1.61685e-07
1.6166e-07
1.61558e-07
1.61444e-07
1.60522e-07
1.59784e-07
1.53212e-07
1.50409e-07
1.11017e-07
1.06972e-07
-1.62241e-05
1.61356e-05
3.01941e-06
7.40378e-07
2.62537e-07
1.83192e-07
1.65945e-07
1.62713e-07
1.61922e-07
1.61741e-07
1.61685e-07
1.6166e-07
1.61557e-07
1.61444e-07
1.60521e-07
1.59783e-07
1.5321e-07
1.50408e-07
1.11014e-07
1.0697e-07