/*--------------------------------*- C++ -*----------------------------------*\
  =========                 |
  \\      /  F ield         | OpenFOAM: The Open Source CFD Toolbox
   \\    /   O peration     | Website:  https://openfoam.org
    \\  /    A nd           | Version:  8
     \\/     M anipulation  |
\*---------------------------------------------------------------------------*/
FoamFile
{
    version     2.0;
    format      ascii;
    class       volScalarField;
    location    "2.5";
    object      S1;
}
// * * * * * * * * * * * * * * * * * * * * * * * * * * * * * * * * * * * * * //

dimensions      [0 1 -1 0 0 0 0];

internalField   nonuniform List<scalar> 
180000
(
-1.0911e-27
-3.25053e-23
-7.98291e-19
-1.39731e-14
-8.17567e-11
-1.16121e-27
-3.40252e-23
-8.12877e-19
-1.33215e-14
-3.71892e-11
-1.16352e-27
-3.40812e-23
-8.13812e-19
-1.33236e-14
-3.66827e-11
-1.17121e-27
-3.42687e-23
-8.16947e-19
-1.33303e-14
-3.49479e-11
-1.17155e-27
-3.42783e-23
-8.17185e-19
-1.3336e-14
-3.51064e-11
-1.17244e-27
-3.43045e-23
-8.17881e-19
-1.33543e-14
-3.56393e-11
-1.17251e-27
-3.43071e-23
-8.17967e-19
-1.33572e-14
-3.57405e-11
-1.17271e-27
-3.43138e-23
-8.18188e-19
-1.33646e-14
-3.59939e-11
-1.17273e-27
-3.43146e-23
-8.18218e-19
-1.33656e-14
-3.60325e-11
-1.17277e-27
-3.43162e-23
-8.18271e-19
-1.33675e-14
-3.60975e-11
-1.17277e-27
-3.43162e-23
-8.18271e-19
-1.33675e-14
-3.60975e-11
-1.17273e-27
-3.43146e-23
-8.18218e-19
-1.33656e-14
-3.60325e-11
-1.17271e-27
-3.43138e-23
-8.18188e-19
-1.33646e-14
-3.59939e-11
-1.17251e-27
-3.43071e-23
-8.17967e-19
-1.33572e-14
-3.57405e-11
-1.17244e-27
-3.43045e-23
-8.17881e-19
-1.33543e-14
-3.56393e-11
-1.17155e-27
-3.42783e-23
-8.17185e-19
-1.3336e-14
-3.51064e-11
-1.17121e-27
-3.42687e-23
-8.16947e-19
-1.33303e-14
-3.49479e-11
-1.16352e-27
-3.40812e-23
-8.13812e-19
-1.33236e-14
-3.66827e-11
-1.16121e-27
-3.40252e-23
-8.12877e-19
-1.33215e-14
-3.71891e-11
-1.0911e-27
-3.25053e-23
-7.98291e-19
-1.39731e-14
-8.17567e-11
-1.09108e-27
-3.25043e-23
-7.98166e-19
-1.38623e-14
1.09652e-10
-1.16119e-27
-3.40241e-23
-8.12744e-19
-1.31968e-14
1.79987e-10
-1.1635e-27
-3.40801e-23
-8.1368e-19
-1.31988e-14
1.80714e-10
-1.17119e-27
-3.42676e-23
-8.16815e-19
-1.32055e-14
1.82982e-10
-1.17153e-27
-3.42771e-23
-8.17053e-19
-1.32113e-14
1.82659e-10
-1.17242e-27
-3.43033e-23
-8.17749e-19
-1.323e-14
1.81515e-10
-1.1725e-27
-3.43059e-23
-8.17835e-19
-1.3233e-14
1.81318e-10
-1.17269e-27
-3.43127e-23
-8.18056e-19
-1.32405e-14
1.80785e-10
-1.17271e-27
-3.43135e-23
-8.18086e-19
-1.32416e-14
1.8071e-10
-1.17275e-27
-3.4315e-23
-8.18139e-19
-1.32436e-14
1.8057e-10
-1.17275e-27
-3.4315e-23
-8.18139e-19
-1.32436e-14
1.8057e-10
-1.17271e-27
-3.43135e-23
-8.18086e-19
-1.32416e-14
1.8071e-10
-1.17269e-27
-3.43127e-23
-8.18056e-19
-1.32405e-14
1.80785e-10
-1.1725e-27
-3.43059e-23
-8.17835e-19
-1.3233e-14
1.81318e-10
-1.17242e-27
-3.43033e-23
-8.1775e-19
-1.323e-14
1.81515e-10
-1.17153e-27
-3.42771e-23
-8.17053e-19
-1.32113e-14
1.82659e-10
-1.17119e-27
-3.42676e-23
-8.16815e-19
-1.32055e-14
1.82982e-10
-1.1635e-27
-3.40801e-23
-8.1368e-19
-1.31988e-14
1.80714e-10
-1.16119e-27
-3.40241e-23
-8.12744e-19
-1.31968e-14
1.79987e-10
-1.09108e-27
-3.25043e-23
-7.98166e-19
-1.38623e-14
1.09652e-10
-1.09107e-27
-3.25017e-23
-7.97021e-19
-1.23046e-14
2.61511e-09
-1.16117e-27
-3.40213e-23
-8.1152e-19
-1.15093e-14
2.90693e-09
-1.16348e-27
-3.40773e-23
-8.12456e-19
-1.15109e-14
2.90914e-09
-1.17117e-27
-3.42648e-23
-8.15595e-19
-1.15189e-14
2.91452e-09
-1.17151e-27
-3.42743e-23
-8.15834e-19
-1.15261e-14
2.91259e-09
-1.1724e-27
-3.43005e-23
-8.16536e-19
-1.15501e-14
2.9054e-09
-1.17248e-27
-3.43031e-23
-8.16622e-19
-1.15538e-14
2.90429e-09
-1.17267e-27
-3.43099e-23
-8.16845e-19
-1.15637e-14
2.90099e-09
-1.17269e-27
-3.43107e-23
-8.16876e-19
-1.15651e-14
2.90056e-09
-1.17273e-27
-3.43122e-23
-8.16929e-19
-1.15677e-14
2.89967e-09
-1.17273e-27
-3.43122e-23
-8.16929e-19
-1.15676e-14
2.89967e-09
-1.17269e-27
-3.43107e-23
-8.16876e-19
-1.15651e-14
2.90056e-09
-1.17267e-27
-3.43099e-23
-8.16845e-19
-1.15637e-14
2.90099e-09
-1.17248e-27
-3.43031e-23
-8.16622e-19
-1.15538e-14
2.90429e-09
-1.1724e-27
-3.43005e-23
-8.16536e-19
-1.15501e-14
2.9054e-09
-1.17151e-27
-3.42743e-23
-8.15834e-19
-1.15261e-14
2.91259e-09
-1.17117e-27
-3.42648e-23
-8.15595e-19
-1.15189e-14
2.91452e-09
-1.16348e-27
-3.40773e-23
-8.12456e-19
-1.15109e-14
2.90914e-09
-1.16117e-27
-3.40213e-23
-8.1152e-19
-1.15093e-14
2.90693e-09
-1.09107e-27
-3.25017e-23
-7.97021e-19
-1.23046e-14
2.61511e-09
-1.09104e-27
-3.24934e-23
-7.90136e-19
-3.24059e-15
1.55945e-08
-1.16115e-27
-3.40127e-23
-8.04289e-19
-1.93091e-15
1.66579e-08
-1.16346e-27
-3.40687e-23
-8.05227e-19
-1.93246e-15
1.66639e-08
-1.17115e-27
-3.42562e-23
-8.08395e-19
-1.95375e-15
1.66764e-08
-1.17149e-27
-3.42657e-23
-8.08641e-19
-1.96746e-15
1.66682e-08
-1.17238e-27
-3.4292e-23
-8.0937e-19
-2.01676e-15
1.66377e-08
-1.17246e-27
-3.42946e-23
-8.09461e-19
-2.02407e-15
1.6633e-08
-1.17265e-27
-3.43013e-23
-8.09696e-19
-2.04537e-15
1.66189e-08
-1.17267e-27
-3.43021e-23
-8.09728e-19
-2.04818e-15
1.66171e-08
-1.17271e-27
-3.43037e-23
-8.09785e-19
-2.05383e-15
1.66133e-08
-1.17271e-27
-3.43037e-23
-8.09785e-19
-2.05382e-15
1.66133e-08
-1.17267e-27
-3.43021e-23
-8.09728e-19
-2.04818e-15
1.66171e-08
-1.17265e-27
-3.43013e-23
-8.09696e-19
-2.04537e-15
1.66189e-08
-1.17246e-27
-3.42946e-23
-8.09461e-19
-2.02407e-15
1.6633e-08
-1.17238e-27
-3.4292e-23
-8.0937e-19
-2.01677e-15
1.66377e-08
-1.17149e-27
-3.42657e-23
-8.08641e-19
-1.96746e-15
1.66682e-08
-1.17115e-27
-3.42562e-23
-8.08395e-19
-1.95375e-15
1.66764e-08
-1.16346e-27
-3.40687e-23
-8.05227e-19
-1.93246e-15
1.66639e-08
-1.16115e-27
-3.40127e-23
-8.04289e-19
-1.93091e-15
1.66579e-08
-1.09104e-27
-3.24934e-23
-7.90136e-19
-3.24059e-15
1.55945e-08
-1.09101e-27
-3.24677e-23
-7.6369e-19
2.77391e-14
5.34326e-08
-1.16111e-27
-3.39861e-23
-7.76948e-19
3.02284e-14
5.59522e-08
-1.16342e-27
-3.40422e-23
-7.77902e-19
3.0222e-14
5.59625e-08
-1.17111e-27
-3.42298e-23
-7.81188e-19
3.0143e-14
5.59777e-08
-1.17145e-27
-3.42393e-23
-7.81458e-19
3.01103e-14
5.59558e-08
-1.17234e-27
-3.42657e-23
-7.82284e-19
2.99869e-14
5.58741e-08
-1.17242e-27
-3.42683e-23
-7.82388e-19
2.99693e-14
5.58617e-08
-1.17261e-27
-3.42751e-23
-7.82666e-19
2.99148e-14
5.58239e-08
-1.17263e-27
-3.42759e-23
-7.82702e-19
2.99079e-14
5.58191e-08
-1.17267e-27
-3.42774e-23
-7.82771e-19
2.98932e-14
5.58088e-08
-1.17267e-27
-3.42774e-23
-7.82771e-19
2.98932e-14
5.58088e-08
-1.17263e-27
-3.42759e-23
-7.82702e-19
2.99079e-14
5.58191e-08
-1.17261e-27
-3.42751e-23
-7.82666e-19
2.99148e-14
5.58239e-08
-1.17242e-27
-3.42683e-23
-7.82388e-19
2.99693e-14
5.58617e-08
-1.17234e-27
-3.42657e-23
-7.82284e-19
2.99869e-14
5.58741e-08
-1.17145e-27
-3.42393e-23
-7.81458e-19
3.01103e-14
5.59558e-08
-1.17111e-27
-3.42298e-23
-7.81188e-19
3.0143e-14
5.59777e-08
-1.16342e-27
-3.40422e-23
-7.77902e-19
3.0222e-14
5.59625e-08
-1.16111e-27
-3.39861e-23
-7.76948e-19
3.02284e-14
5.59522e-08
-1.09101e-27
-3.24677e-23
-7.6369e-19
2.77391e-14
5.34326e-08
-1.09092e-27
-3.23954e-23
-6.898e-19
1.02879e-13
1.29563e-07
-1.16102e-27
-3.39124e-23
-7.01483e-19
1.07195e-13
1.33816e-07
-1.16334e-27
-3.39686e-23
-7.02485e-19
1.07168e-13
1.33824e-07
-1.17103e-27
-3.41566e-23
-7.06123e-19
1.06924e-13
1.33812e-07
-1.17137e-27
-3.41663e-23
-7.06456e-19
1.06851e-13
1.33768e-07
-1.17226e-27
-3.41929e-23
-7.07533e-19
1.06569e-13
1.33606e-07
-1.17233e-27
-3.41956e-23
-7.07669e-19
1.06529e-13
1.33582e-07
-1.17253e-27
-3.42025e-23
-7.08057e-19
1.06404e-13
1.33507e-07
-1.17255e-27
-3.42033e-23
-7.08107e-19
1.06389e-13
1.33497e-07
-1.17259e-27
-3.42049e-23
-7.08207e-19
1.06354e-13
1.33477e-07
-1.17259e-27
-3.42049e-23
-7.08206e-19
1.06354e-13
1.33477e-07
-1.17255e-27
-3.42033e-23
-7.08107e-19
1.06389e-13
1.33497e-07
-1.17253e-27
-3.42025e-23
-7.08057e-19
1.06404e-13
1.33507e-07
-1.17233e-27
-3.41956e-23
-7.07669e-19
1.06529e-13
1.33582e-07
-1.17226e-27
-3.41929e-23
-7.07533e-19
1.06569e-13
1.33606e-07
-1.17137e-27
-3.41663e-23
-7.06456e-19
1.06851e-13
1.33768e-07
-1.17103e-27
-3.41566e-23
-7.06123e-19
1.06924e-13
1.33812e-07
-1.16334e-27
-3.39686e-23
-7.02485e-19
1.07168e-13
1.33824e-07
-1.16102e-27
-3.39124e-23
-7.01483e-19
1.07195e-13
1.33816e-07
-1.09092e-27
-3.23954e-23
-6.898e-19
1.02879e-13
1.29563e-07
-1.09073e-27
-3.22203e-23
-5.24132e-19
2.48146e-13
2.50277e-07
-1.16082e-27
-3.37356e-23
-5.33859e-19
2.54507e-13
2.55884e-07
-1.16314e-27
-3.3792e-23
-5.34982e-19
2.54429e-13
2.55877e-07
-1.17083e-27
-3.39812e-23
-5.39449e-19
2.53819e-13
2.55767e-07
-1.17117e-27
-3.39911e-23
-5.39914e-19
2.53675e-13
2.55694e-07
-1.17206e-27
-3.40184e-23
-5.41524e-19
2.53111e-13
2.55424e-07
-1.17214e-27
-3.40212e-23
-5.41729e-19
2.53034e-13
2.55383e-07
-1.17233e-27
-3.40284e-23
-5.42351e-19
2.52783e-13
2.55259e-07
-1.17235e-27
-3.40293e-23
-5.42428e-19
2.52752e-13
2.55243e-07
-1.1724e-27
-3.4031e-23
-5.42592e-19
2.52683e-13
2.55209e-07
-1.1724e-27
-3.4031e-23
-5.42592e-19
2.52683e-13
2.55209e-07
-1.17235e-27
-3.40293e-23
-5.42428e-19
2.52752e-13
2.55243e-07
-1.17233e-27
-3.40284e-23
-5.42351e-19
2.52783e-13
2.55259e-07
-1.17214e-27
-3.40212e-23
-5.41729e-19
2.53034e-13
2.55383e-07
-1.17206e-27
-3.40184e-23
-5.41524e-19
2.53111e-13
2.55424e-07
-1.17117e-27
-3.39911e-23
-5.39913e-19
2.53675e-13
2.55694e-07
-1.17083e-27
-3.39812e-23
-5.39449e-19
2.53819e-13
2.55767e-07
-1.16314e-27
-3.3792e-23
-5.34982e-19
2.54429e-13
2.55877e-07
-1.16082e-27
-3.37356e-23
-5.33859e-19
2.54507e-13
2.55884e-07
-1.09073e-27
-3.22203e-23
-5.24132e-19
2.48146e-13
2.50277e-07
-1.09029e-27
-3.18487e-23
-2.05972e-19
4.89341e-13
4.15136e-07
-1.16039e-27
-3.33632e-23
-2.14276e-19
4.97256e-13
4.21246e-07
-1.16271e-27
-3.342e-23
-2.15651e-19
4.97074e-13
4.21203e-07
-1.1704e-27
-3.36119e-23
-2.21782e-19
4.95783e-13
4.20883e-07
-1.17074e-27
-3.36222e-23
-2.22488e-19
4.95528e-13
4.20773e-07
-1.17164e-27
-3.36511e-23
-2.25085e-19
4.94518e-13
4.20362e-07
-1.17171e-27
-3.3654e-23
-2.25417e-19
4.94381e-13
4.20302e-07
-1.17191e-27
-3.36619e-23
-2.26469e-19
4.93934e-13
4.20114e-07
-1.17193e-27
-3.36629e-23
-2.26597e-19
4.9388e-13
4.20091e-07
-1.17197e-27
-3.36647e-23
-2.2688e-19
4.93756e-13
4.20039e-07
-1.17197e-27
-3.36647e-23
-2.2688e-19
4.93756e-13
4.20039e-07
-1.17193e-27
-3.36629e-23
-2.26597e-19
4.9388e-13
4.20091e-07
-1.17191e-27
-3.36619e-23
-2.26469e-19
4.93934e-13
4.20114e-07
-1.17171e-27
-3.3654e-23
-2.25417e-19
4.94381e-13
4.20302e-07
-1.17164e-27
-3.36511e-23
-2.25085e-19
4.94518e-13
4.20362e-07
-1.17074e-27
-3.36222e-23
-2.22488e-19
4.95528e-13
4.20773e-07
-1.1704e-27
-3.36119e-23
-2.21782e-19
4.95783e-13
4.20883e-07
-1.16271e-27
-3.342e-23
-2.15651e-19
4.97074e-13
4.21203e-07
-1.16039e-27
-3.33632e-23
-2.14276e-19
4.97256e-13
4.21246e-07
-1.09029e-27
-3.18487e-23
-2.05973e-19
4.89341e-13
4.15136e-07
-1.0894e-27
-3.11401e-23
3.40537e-19
8.50269e-13
6.20568e-07
-1.1595e-27
-3.26574e-23
3.31537e-19
8.58433e-13
6.26135e-07
-1.16183e-27
-3.2715e-23
3.29707e-19
8.58077e-13
6.26033e-07
-1.16953e-27
-3.29123e-23
3.20593e-19
8.55654e-13
6.25356e-07
-1.16987e-27
-3.29232e-23
3.19485e-19
8.55238e-13
6.25201e-07
-1.17077e-27
-3.2955e-23
3.15232e-19
8.53572e-13
6.24604e-07
-1.17085e-27
-3.29583e-23
3.14691e-19
8.53352e-13
6.24521e-07
-1.17105e-27
-3.29675e-23
3.12918e-19
8.52617e-13
6.24253e-07
-1.17107e-27
-3.29686e-23
3.12707e-19
8.5253e-13
6.24219e-07
-1.17111e-27
-3.29708e-23
3.12225e-19
8.52326e-13
6.24145e-07
-1.17111e-27
-3.29708e-23
3.12225e-19
8.52326e-13
6.24145e-07
-1.17107e-27
-3.29686e-23
3.12707e-19
8.5253e-13
6.24219e-07
-1.17105e-27
-3.29675e-23
3.12918e-19
8.52617e-13
6.24253e-07
-1.17085e-27
-3.29583e-23
3.14691e-19
8.53352e-13
6.24521e-07
-1.17077e-27
-3.2955e-23
3.15232e-19
8.53572e-13
6.24604e-07
-1.16987e-27
-3.29232e-23
3.19485e-19
8.55238e-13
6.25201e-07
-1.16953e-27
-3.29123e-23
3.20593e-19
8.55654e-13
6.25356e-07
-1.16183e-27
-3.2715e-23
3.29707e-19
8.58077e-13
6.26033e-07
-1.1595e-27
-3.26574e-23
3.31537e-19
8.58433e-13
6.26135e-07
-1.0894e-27
-3.11401e-23
3.40537e-19
8.50269e-13
6.20568e-07
-1.08772e-27
-2.9899e-23
1.20478e-18
1.35221e-12
8.62176e-07
-1.15784e-27
-3.14271e-23
1.19071e-18
1.35849e-12
8.66106e-07
-1.16016e-27
-3.14863e-23
1.18812e-18
1.35787e-12
8.65918e-07
-1.16789e-27
-3.16932e-23
1.17411e-18
1.35372e-12
8.64713e-07
-1.16823e-27
-3.17053e-23
1.17238e-18
1.35309e-12
8.64501e-07
-1.16914e-27
-3.17421e-23
1.16554e-18
1.3505e-12
8.63664e-07
-1.16921e-27
-3.1746e-23
1.16467e-18
1.35017e-12
8.63551e-07
-1.16942e-27
-3.17574e-23
1.16178e-18
1.34904e-12
8.6318e-07
-1.16944e-27
-3.17587e-23
1.16144e-18
1.3489e-12
8.63135e-07
-1.16948e-27
-3.17615e-23
1.16064e-18
1.34859e-12
8.63032e-07
-1.16948e-27
-3.17615e-23
1.16064e-18
1.34859e-12
8.63032e-07
-1.16944e-27
-3.17587e-23
1.16144e-18
1.3489e-12
8.63135e-07
-1.16942e-27
-3.17574e-23
1.16178e-18
1.34904e-12
8.6318e-07
-1.16921e-27
-3.1746e-23
1.16467e-18
1.35017e-12
8.63551e-07
-1.16914e-27
-3.17421e-23
1.16554e-18
1.3505e-12
8.63664e-07
-1.16823e-27
-3.17053e-23
1.17238e-18
1.35309e-12
8.64501e-07
-1.16789e-27
-3.16932e-23
1.17411e-18
1.35372e-12
8.64713e-07
-1.16016e-27
-3.14863e-23
1.18812e-18
1.35787e-12
8.65918e-07
-1.15784e-27
-3.14271e-23
1.19071e-18
1.35849e-12
8.66106e-07
-1.08772e-27
-2.9899e-23
1.20478e-18
1.35221e-12
8.62176e-07
-1.08476e-27
-2.79309e-23
2.38542e-18
1.85246e-12
8.59748e-07
-1.15493e-27
-2.94825e-23
2.36191e-18
1.85688e-12
8.63743e-07
-1.15727e-27
-2.95441e-23
2.35827e-18
1.856e-12
8.63559e-07
-1.16502e-27
-2.97665e-23
2.33746e-18
1.85015e-12
8.62376e-07
-1.16536e-27
-2.97805e-23
2.33489e-18
1.84929e-12
8.62166e-07
-1.16629e-27
-2.98252e-23
2.32454e-18
1.84581e-12
8.61339e-07
-1.16637e-27
-2.98301e-23
2.32324e-18
1.84536e-12
8.61228e-07
-1.16657e-27
-2.98448e-23
2.31882e-18
1.84383e-12
8.60861e-07
-1.1666e-27
-2.98466e-23
2.31831e-18
1.84365e-12
8.60816e-07
-1.16664e-27
-2.98503e-23
2.3171e-18
1.84323e-12
8.60714e-07
-1.16664e-27
-2.98503e-23
2.3171e-18
1.84323e-12
8.60714e-07
-1.1666e-27
-2.98466e-23
2.31831e-18
1.84365e-12
8.60816e-07
-1.16657e-27
-2.98448e-23
2.31882e-18
1.84383e-12
8.60861e-07
-1.16637e-27
-2.98301e-23
2.32324e-18
1.84536e-12
8.61228e-07
-1.16629e-27
-2.98252e-23
2.32454e-18
1.84581e-12
8.61339e-07
-1.16536e-27
-2.97805e-23
2.33489e-18
1.84929e-12
8.62166e-07
-1.16502e-27
-2.97665e-23
2.33746e-18
1.85015e-12
8.62376e-07
-1.15727e-27
-2.95441e-23
2.35827e-18
1.856e-12
8.63559e-07
-1.15493e-27
-2.94825e-23
2.36191e-18
1.85688e-12
8.63743e-07
-1.08476e-27
-2.7931e-23
2.38542e-18
1.85246e-12
8.59748e-07
-1.07995e-27
-2.50423e-23
3.88107e-18
2.35101e-12
8.57386e-07
-1.15021e-27
-2.66346e-23
3.84375e-18
2.35359e-12
8.61443e-07
-1.15255e-27
-2.66998e-23
3.83878e-18
2.35245e-12
8.61263e-07
-1.16036e-27
-2.69452e-23
3.8093e-18
2.34492e-12
8.60101e-07
-1.16071e-27
-2.69619e-23
3.80567e-18
2.34385e-12
8.59893e-07
-1.16166e-27
-2.70181e-23
3.79089e-18
2.33946e-12
8.59076e-07
-1.16174e-27
-2.70244e-23
3.78905e-18
2.3389e-12
8.58966e-07
-1.16196e-27
-2.70441e-23
3.78272e-18
2.33698e-12
8.58603e-07
-1.16198e-27
-2.70464e-23
3.78199e-18
2.33676e-12
8.5856e-07
-1.16203e-27
-2.70515e-23
3.78025e-18
2.33623e-12
8.58459e-07
-1.16203e-27
-2.70515e-23
3.78025e-18
2.33623e-12
8.58459e-07
-1.16198e-27
-2.70464e-23
3.78199e-18
2.33676e-12
8.5856e-07
-1.16196e-27
-2.70441e-23
3.78272e-18
2.33698e-12
8.58603e-07
-1.16174e-27
-2.70244e-23
3.78905e-18
2.3389e-12
8.58966e-07
-1.16166e-27
-2.70181e-23
3.79089e-18
2.33946e-12
8.59076e-07
-1.16071e-27
-2.69619e-23
3.80567e-18
2.34385e-12
8.59893e-07
-1.16036e-27
-2.69452e-23
3.8093e-18
2.34492e-12
8.60101e-07
-1.15255e-27
-2.66998e-23
3.83878e-18
2.35245e-12
8.61263e-07
-1.15021e-27
-2.66346e-23
3.84375e-18
2.35359e-12
8.61443e-07
-1.07995e-27
-2.50423e-23
3.88107e-18
2.35101e-12
8.57386e-07
-1.07256e-27
-2.10406e-23
5.69024e-18
2.84777e-12
8.55083e-07
-1.14298e-27
-2.26955e-23
5.63474e-18
2.84855e-12
8.592e-07
-1.14534e-27
-2.27656e-23
5.62816e-18
2.84715e-12
8.59024e-07
-1.15321e-27
-2.30431e-23
5.58816e-18
2.83796e-12
8.57882e-07
-1.15358e-27
-2.30635e-23
5.58328e-18
2.83667e-12
8.57677e-07
-1.15456e-27
-2.31357e-23
5.56316e-18
2.8314e-12
8.5687e-07
-1.15465e-27
-2.31439e-23
5.56067e-18
2.83072e-12
8.56761e-07
-1.15488e-27
-2.31704e-23
5.55204e-18
2.82842e-12
8.56402e-07
-1.15491e-27
-2.31735e-23
5.55105e-18
2.82815e-12
8.56359e-07
-1.15496e-27
-2.31805e-23
5.54867e-18
2.82751e-12
8.56259e-07
-1.15496e-27
-2.31805e-23
5.54867e-18
2.82751e-12
8.56259e-07
-1.15491e-27
-2.31735e-23
5.55105e-18
2.82815e-12
8.56359e-07
-1.15488e-27
-2.31704e-23
5.55204e-18
2.82842e-12
8.56402e-07
-1.15465e-27
-2.31439e-23
5.56067e-18
2.83072e-12
8.56761e-07
-1.15456e-27
-2.31357e-23
5.56316e-18
2.8314e-12
8.5687e-07
-1.15358e-27
-2.30635e-23
5.58328e-18
2.83667e-12
8.57677e-07
-1.15321e-27
-2.30431e-23
5.58816e-18
2.83796e-12
8.57882e-07
-1.14533e-27
-2.27656e-23
5.62816e-18
2.84715e-12
8.59024e-07
-1.14298e-27
-2.26955e-23
5.63474e-18
2.84855e-12
8.592e-07
-1.07256e-27
-2.10406e-23
5.69024e-18
2.84777e-12
8.55083e-07
-1.06174e-27
-1.57345e-23
7.81137e-18
3.34267e-12
8.52835e-07
-1.13241e-27
-1.74785e-23
7.73333e-18
3.34167e-12
8.5701e-07
-1.13479e-27
-1.75553e-23
7.72486e-18
3.34003e-12
8.56837e-07
-1.14278e-27
-1.78753e-23
7.67253e-18
3.32919e-12
8.55716e-07
-1.14316e-27
-1.79007e-23
7.66618e-18
3.3277e-12
8.55513e-07
-1.14419e-27
-1.79938e-23
7.63984e-18
3.32154e-12
8.54714e-07
-1.14429e-27
-1.80046e-23
7.63659e-18
3.32076e-12
8.54607e-07
-1.14455e-27
-1.80402e-23
7.62527e-18
3.31807e-12
8.54252e-07
-1.14457e-27
-1.80442e-23
7.62398e-18
3.31776e-12
8.54209e-07
-1.14463e-27
-1.80537e-23
7.62085e-18
3.31702e-12
8.54111e-07
-1.14463e-27
-1.80537e-23
7.62085e-18
3.31702e-12
8.54111e-07
-1.14457e-27
-1.80442e-23
7.62398e-18
3.31776e-12
8.54209e-07
-1.14455e-27
-1.80402e-23
7.62527e-18
3.31807e-12
8.54252e-07
-1.14429e-27
-1.80046e-23
7.63659e-18
3.32076e-12
8.54607e-07
-1.14419e-27
-1.79938e-23
7.63984e-18
3.32154e-12
8.54714e-07
-1.14316e-27
-1.79007e-23
7.66618e-18
3.3277e-12
8.55513e-07
-1.14278e-27
-1.78753e-23
7.67253e-18
3.32919e-12
8.55716e-07
-1.13479e-27
-1.75553e-23
7.72486e-18
3.34003e-12
8.56837e-07
-1.13241e-27
-1.74785e-23
7.73333e-18
3.34167e-12
8.5701e-07
-1.06174e-27
-1.57345e-23
7.81137e-18
3.34267e-12
8.52835e-07
-1.04653e-27
-8.93379e-24
1.02428e-17
3.83565e-12
8.50637e-07
-1.11758e-27
-1.07981e-23
1.01379e-17
3.83288e-12
8.54869e-07
-1.11998e-27
-1.08833e-23
1.01272e-17
3.831e-12
8.547e-07
-1.12813e-27
-1.12581e-23
1.00608e-17
3.81855e-12
8.53598e-07
-1.12853e-27
-1.12898e-23
1.00528e-17
3.81685e-12
8.53397e-07
-1.12964e-27
-1.14097e-23
1.00193e-17
3.80982e-12
8.52607e-07
-1.12974e-27
-1.14237e-23
1.00152e-17
3.80893e-12
8.52501e-07
-1.13004e-27
-1.14708e-23
1.00008e-17
3.80586e-12
8.5215e-07
-1.13007e-27
-1.14761e-23
9.99919e-18
3.80551e-12
8.52108e-07
-1.13013e-27
-1.14888e-23
9.99521e-18
3.80466e-12
8.5201e-07
-1.13013e-27
-1.14888e-23
9.99521e-18
3.80466e-12
8.5201e-07
-1.13007e-27
-1.14761e-23
9.99919e-18
3.80551e-12
8.52108e-07
-1.13004e-27
-1.14708e-23
1.00008e-17
3.80586e-12
8.5215e-07
-1.12974e-27
-1.14237e-23
1.00152e-17
3.80893e-12
8.52501e-07
-1.12964e-27
-1.14097e-23
1.00193e-17
3.80982e-12
8.52607e-07
-1.12853e-27
-1.12898e-23
1.00528e-17
3.81685e-12
8.53397e-07
-1.12813e-27
-1.12581e-23
1.00608e-17
3.81855e-12
8.53598e-07
-1.11998e-27
-1.08833e-23
1.01272e-17
3.831e-12
8.547e-07
-1.11758e-27
-1.07981e-23
1.01379e-17
3.83288e-12
8.54869e-07
-1.04653e-27
-8.93379e-24
1.02428e-17
3.83565e-12
8.50637e-07
-1.02583e-27
-4.49516e-25
1.29829e-17
4.32661e-12
8.48486e-07
-1.09742e-27
-2.47009e-24
1.28466e-17
4.32211e-12
8.52773e-07
-1.09986e-27
-2.56575e-24
1.28336e-17
4.31999e-12
8.52608e-07
-1.10823e-27
-3.0089e-24
1.27513e-17
4.30595e-12
8.51524e-07
-1.10864e-27
-3.0483e-24
1.27414e-17
4.30404e-12
8.51325e-07
-1.10986e-27
-3.20161e-24
1.26999e-17
4.29615e-12
8.50544e-07
-1.10998e-27
-3.21955e-24
1.26949e-17
4.29515e-12
8.50439e-07
-1.11031e-27
-3.28098e-24
1.2677e-17
4.29171e-12
8.50092e-07
-1.11035e-27
-3.28788e-24
1.2675e-17
4.29132e-12
8.5005e-07
-1.11043e-27
-3.30455e-24
1.26701e-17
4.29036e-12
8.49954e-07
-1.11043e-27
-3.30455e-24
1.26701e-17
4.29036e-12
8.49954e-07
-1.11035e-27
-3.28788e-24
1.2675e-17
4.29132e-12
8.5005e-07
-1.11031e-27
-3.28098e-24
1.2677e-17
4.29171e-12
8.50092e-07
-1.10998e-27
-3.21955e-24
1.26949e-17
4.29515e-12
8.50439e-07
-1.10986e-27
-3.20161e-24
1.26999e-17
4.29615e-12
8.50544e-07
-1.10864e-27
-3.04829e-24
1.27414e-17
4.30404e-12
8.51325e-07
-1.10823e-27
-3.00889e-24
1.27513e-17
4.30595e-12
8.51524e-07
-1.09986e-27
-2.56574e-24
1.28336e-17
4.31999e-12
8.52608e-07
-1.09742e-27
-2.47008e-24
1.28466e-17
4.32211e-12
8.52773e-07
-1.02583e-27
-4.49518e-25
1.29829e-17
4.32661e-12
8.48486e-07
-9.98436e-28
9.90607e-24
1.60297e-17
4.81548e-12
8.46379e-07
-1.07075e-27
7.68861e-24
1.58578e-17
4.80927e-12
8.50718e-07
-1.07324e-27
7.58017e-24
1.58421e-17
4.80692e-12
8.50557e-07
-1.0819e-27
7.05366e-24
1.57421e-17
4.79131e-12
8.49491e-07
-1.08235e-27
7.00485e-24
1.57302e-17
4.7892e-12
8.49295e-07
-1.0837e-27
6.81094e-24
1.56799e-17
4.78045e-12
8.48522e-07
-1.08383e-27
6.78819e-24
1.56738e-17
4.77936e-12
8.48418e-07
-1.08423e-27
6.70932e-24
1.56521e-17
4.77554e-12
8.48074e-07
-1.08427e-27
6.7005e-24
1.56497e-17
4.77511e-12
8.48033e-07
-1.08437e-27
6.67901e-24
1.56437e-17
4.77405e-12
8.47937e-07
-1.08437e-27
6.67901e-24
1.56437e-17
4.77405e-12
8.47937e-07
-1.08427e-27
6.7005e-24
1.56497e-17
4.77511e-12
8.48033e-07
-1.08423e-27
6.70932e-24
1.56521e-17
4.77554e-12
8.48074e-07
-1.08383e-27
6.78819e-24
1.56738e-17
4.77936e-12
8.48418e-07
-1.0837e-27
6.81094e-24
1.56799e-17
4.78045e-12
8.48522e-07
-1.08235e-27
7.00486e-24
1.57302e-17
4.7892e-12
8.49295e-07
-1.0819e-27
7.05366e-24
1.57421e-17
4.79131e-12
8.49491e-07
-1.07324e-27
7.58017e-24
1.58421e-17
4.80692e-12
8.50557e-07
-1.07075e-27
7.68862e-24
1.58578e-17
4.80927e-12
8.50718e-07
-9.98436e-28
9.90607e-24
1.60297e-17
4.81548e-12
8.46379e-07
-9.62997e-28
2.23194e-23
1.93814e-17
5.30217e-12
8.44309e-07
-1.03629e-27
1.98596e-23
1.91695e-17
5.29428e-12
8.48701e-07
-1.03884e-27
1.97359e-23
1.91508e-17
5.29169e-12
8.48543e-07
-1.04787e-27
1.91095e-23
1.90316e-17
5.27454e-12
8.47495e-07
-1.04836e-27
1.90495e-23
1.90174e-17
5.27224e-12
8.473e-07
-1.04989e-27
1.88071e-23
1.89575e-17
5.26265e-12
8.46536e-07
-1.05004e-27
1.87786e-23
1.89502e-17
5.26145e-12
8.46432e-07
-1.05051e-27
1.86789e-23
1.89244e-17
5.25727e-12
8.46093e-07
-1.05056e-27
1.86678e-23
1.89215e-17
5.2568e-12
8.46052e-07
-1.05068e-27
1.86406e-23
1.89143e-17
5.25564e-12
8.45957e-07
-1.05068e-27
1.86406e-23
1.89143e-17
5.25564e-12
8.45957e-07
-1.05056e-27
1.86678e-23
1.89215e-17
5.2568e-12
8.46052e-07
-1.05051e-27
1.86789e-23
1.89244e-17
5.25727e-12
8.46093e-07
-1.05004e-27
1.87786e-23
1.89502e-17
5.26145e-12
8.46432e-07
-1.04989e-27
1.88071e-23
1.89575e-17
5.26265e-12
8.46536e-07
-1.04836e-27
1.90495e-23
1.90174e-17
5.27224e-12
8.473e-07
-1.04787e-27
1.91095e-23
1.90316e-17
5.27454e-12
8.47495e-07
-1.03884e-27
1.97359e-23
1.91508e-17
5.29169e-12
8.48543e-07
-1.03629e-27
1.98596e-23
1.91695e-17
5.29428e-12
8.48701e-07
-9.62997e-28
2.23194e-23
1.93814e-17
5.30217e-12
8.44309e-07
-9.18052e-28
3.69756e-23
2.30361e-17
5.7866e-12
8.42271e-07
-9.92613e-28
3.4223e-23
2.27797e-17
5.77704e-12
8.46713e-07
-9.9524e-28
3.40814e-23
2.27579e-17
5.77424e-12
8.46558e-07
-1.00474e-27
3.33374e-23
2.26178e-17
5.75557e-12
8.45527e-07
-1.00528e-27
3.32643e-23
2.26011e-17
5.75307e-12
8.45335e-07
-1.00704e-27
3.29647e-23
2.25307e-17
5.74265e-12
8.44578e-07
-1.00722e-27
3.29295e-23
2.25221e-17
5.74135e-12
8.44476e-07
-1.00778e-27
3.28053e-23
2.24918e-17
5.73682e-12
8.4414e-07
-1.00785e-27
3.27915e-23
2.24884e-17
5.7363e-12
8.44099e-07
-1.00799e-27
3.27575e-23
2.248e-17
5.73504e-12
8.44006e-07
-1.00799e-27
3.27575e-23
2.248e-17
5.73504e-12
8.44006e-07
-1.00785e-27
3.27915e-23
2.24884e-17
5.7363e-12
8.44099e-07
-1.00778e-27
3.28053e-23
2.24918e-17
5.73682e-12
8.4414e-07
-1.00722e-27
3.29295e-23
2.25221e-17
5.74135e-12
8.44476e-07
-1.00704e-27
3.29647e-23
2.25307e-17
5.74265e-12
8.44578e-07
-1.00528e-27
3.32643e-23
2.26011e-17
5.75307e-12
8.45335e-07
-1.00474e-27
3.33374e-23
2.26178e-17
5.75557e-12
8.45527e-07
-9.9524e-28
3.40814e-23
2.27579e-17
5.77424e-12
8.46558e-07
-9.92612e-28
3.42231e-23
2.27797e-17
5.77704e-12
8.46713e-07
-9.18052e-28
3.69756e-23
2.30361e-17
5.7866e-12
8.42271e-07
-8.62017e-28
5.40583e-23
2.69916e-17
6.26865e-12
8.40231e-07
-9.38195e-28
5.09578e-23
2.66865e-17
6.25746e-12
8.44724e-07
-9.40916e-28
5.07953e-23
2.66613e-17
6.25444e-12
8.44572e-07
-9.51003e-28
4.99145e-23
2.64986e-17
6.23428e-12
8.43559e-07
-9.51609e-28
4.98262e-23
2.64793e-17
6.2316e-12
8.43369e-07
-9.53646e-28
4.94602e-23
2.63975e-17
6.22036e-12
8.4262e-07
-9.53857e-28
4.94173e-23
2.63876e-17
6.21896e-12
8.42519e-07
-9.54544e-28
4.92645e-23
2.63524e-17
6.21406e-12
8.42186e-07
-9.54618e-28
4.92477e-23
2.63484e-17
6.21351e-12
8.42146e-07
-9.54795e-28
4.92058e-23
2.63387e-17
6.21215e-12
8.42053e-07
-9.54794e-28
4.92058e-23
2.63387e-17
6.21215e-12
8.42053e-07
-9.54618e-28
4.92477e-23
2.63484e-17
6.21351e-12
8.42146e-07
-9.54543e-28
4.92645e-23
2.63524e-17
6.21406e-12
8.42186e-07
-9.53857e-28
4.94173e-23
2.63876e-17
6.21896e-12
8.42519e-07
-9.53646e-28
4.94602e-23
2.63975e-17
6.22036e-12
8.4262e-07
-9.51609e-28
4.98262e-23
2.64793e-17
6.2316e-12
8.43369e-07
-9.51003e-28
4.99146e-23
2.64986e-17
6.23428e-12
8.43559e-07
-9.40916e-28
5.07953e-23
2.66613e-17
6.25444e-12
8.44572e-07
-9.38195e-28
5.09579e-23
2.66865e-17
6.25746e-12
8.44724e-07
-8.62017e-28
5.40583e-23
2.69916e-17
6.26865e-12
8.40231e-07
1.23744e-05
-3.5488e-07
-7.99428e-08
-1.00104e-09
-1.91571e-12
1.69556e-15
2.45751e-15
2.46409e-15
2.46552e-15
2.46575e-15
2.46592e-15
2.46697e-15
2.47247e-15
2.4793e-15
2.53649e-15
2.58629e-15
3.11371e-15
3.40323e-15
1.07982e-14
1.26355e-14
1.59894e-05
1.90584e-08
-7.63695e-08
-1.04991e-09
-2.12317e-12
1.58049e-15
2.45728e-15
2.46403e-15
2.46548e-15
2.46571e-15
2.46578e-15
2.46663e-15
2.47224e-15
2.47919e-15
2.53733e-15
2.5877e-15
3.12182e-15
3.41322e-15
1.08918e-14
1.27497e-14
1.6035e-05
2.33211e-08
-7.62961e-08
-1.04972e-09
-2.12364e-12
1.57983e-15
2.45728e-15
2.46403e-15
2.46548e-15
2.46571e-15
2.46578e-15
2.46665e-15
2.47227e-15
2.47922e-15
2.53738e-15
2.58776e-15
3.12198e-15
3.41339e-15
1.08927e-14
1.27506e-14
1.61907e-05
3.74802e-08
-7.58652e-08
-1.04493e-09
-2.11373e-12
1.58291e-15
2.45727e-15
2.46403e-15
2.46549e-15
2.46572e-15
2.4658e-15
2.46675e-15
2.47237e-15
2.47933e-15
2.53755e-15
2.58797e-15
3.1225e-15
3.41395e-15
1.08956e-14
1.27531e-14
1.61781e-05
3.61315e-08
-7.587e-08
-1.04458e-09
-2.11251e-12
1.58346e-15
2.45727e-15
2.46403e-15
2.46549e-15
2.46572e-15
2.4658e-15
2.46675e-15
2.47238e-15
2.47934e-15
2.53756e-15
2.58797e-15
3.12252e-15
3.41396e-15
1.08956e-14
1.27531e-14
1.6136e-05
3.13906e-08
-7.58584e-08
-1.04295e-09
-2.10741e-12
1.58571e-15
2.45727e-15
2.46403e-15
2.46549e-15
2.46572e-15
2.46581e-15
2.46675e-15
2.47238e-15
2.47934e-15
2.53757e-15
2.58798e-15
3.12254e-15
3.41399e-15
1.08957e-14
1.27532e-14
1.61278e-05
3.05222e-08
-7.58654e-08
-1.04282e-09
-2.10689e-12
1.58595e-15
2.45727e-15
2.46403e-15
2.46549e-15
2.46572e-15
2.46581e-15
2.46675e-15
2.47238e-15
2.47934e-15
2.53757e-15
2.58798e-15
3.12255e-15
3.41399e-15
1.08957e-14
1.27532e-14
1.61073e-05
2.82222e-08
-7.58719e-08
-1.04229e-09
-2.10514e-12
1.58673e-15
2.45727e-15
2.46403e-15
2.46549e-15
2.46572e-15
2.46581e-15
2.46675e-15
2.47238e-15
2.47934e-15
2.53757e-15
2.58798e-15
3.12255e-15
3.41399e-15
1.08957e-14
1.27532e-14
1.61042e-05
2.78863e-08
-7.58751e-08
-1.04225e-09
-2.10497e-12
1.58681e-15
2.45727e-15
2.46403e-15
2.46549e-15
2.46572e-15
2.46581e-15
2.46675e-15
2.47238e-15
2.47934e-15
2.53757e-15
2.58798e-15
3.12255e-15
3.41399e-15
1.08957e-14
1.27532e-14
1.60989e-05
2.72835e-08
-7.58775e-08
-1.04213e-09
-2.10456e-12
1.58699e-15
2.45727e-15
2.46403e-15
2.46549e-15
2.46572e-15
2.46581e-15
2.46675e-15
2.47238e-15
2.47934e-15
2.53757e-15
2.58798e-15
3.12255e-15
3.41399e-15
1.08957e-14
1.27532e-14
1.60989e-05
2.72836e-08
-7.58775e-08
-1.04213e-09
-2.10456e-12
1.58699e-15
2.45727e-15
2.46403e-15
2.46549e-15
2.46572e-15
2.46581e-15
2.46675e-15
2.47238e-15
2.47934e-15
2.53757e-15
2.58798e-15
3.12255e-15
3.41399e-15
1.08957e-14
1.27532e-14
1.61042e-05
2.78863e-08
-7.58751e-08
-1.04225e-09
-2.10497e-12
1.58681e-15
2.45727e-15
2.46403e-15
2.46549e-15
2.46572e-15
2.46581e-15
2.46675e-15
2.47238e-15
2.47934e-15
2.53757e-15
2.58798e-15
3.12255e-15
3.41399e-15
1.08957e-14
1.27532e-14
1.61073e-05
2.82222e-08
-7.58719e-08
-1.04229e-09
-2.10514e-12
1.58673e-15
2.45727e-15
2.46403e-15
2.46549e-15
2.46572e-15
2.46581e-15
2.46675e-15
2.47238e-15
2.47934e-15
2.53757e-15
2.58798e-15
3.12255e-15
3.41399e-15
1.08957e-14
1.27532e-14
1.61278e-05
3.05222e-08
-7.58654e-08
-1.04282e-09
-2.10689e-12
1.58595e-15
2.45727e-15
2.46403e-15
2.46549e-15
2.46572e-15
2.46581e-15
2.46675e-15
2.47238e-15
2.47934e-15
2.53757e-15
2.58798e-15
3.12255e-15
3.41399e-15
1.08957e-14
1.27532e-14
1.6136e-05
3.13905e-08
-7.58584e-08
-1.04295e-09
-2.10741e-12
1.58571e-15
2.45727e-15
2.46403e-15
2.46549e-15
2.46572e-15
2.46581e-15
2.46675e-15
2.47238e-15
2.47934e-15
2.53757e-15
2.58798e-15
3.12254e-15
3.41399e-15
1.08957e-14
1.27532e-14
1.61781e-05
3.61316e-08
-7.587e-08
-1.04458e-09
-2.11251e-12
1.58346e-15
2.45727e-15
2.46403e-15
2.46549e-15
2.46572e-15
2.4658e-15
2.46675e-15
2.47238e-15
2.47934e-15
2.53756e-15
2.58797e-15
3.12252e-15
3.41396e-15
1.08956e-14
1.27531e-14
1.61907e-05
3.74802e-08
-7.58652e-08
-1.04493e-09
-2.11373e-12
1.58291e-15
2.45727e-15
2.46403e-15
2.46549e-15
2.46572e-15
2.4658e-15
2.46675e-15
2.47237e-15
2.47933e-15
2.53755e-15
2.58797e-15
3.1225e-15
3.41395e-15
1.08956e-14
1.27531e-14
1.6035e-05
2.33213e-08
-7.62961e-08
-1.04972e-09
-2.12364e-12
1.57983e-15
2.45728e-15
2.46403e-15
2.46548e-15
2.46571e-15
2.46578e-15
2.46665e-15
2.47227e-15
2.47922e-15
2.53738e-15
2.58776e-15
3.12198e-15
3.41339e-15
1.08927e-14
1.27506e-14
1.59894e-05
1.90586e-08
-7.63695e-08
-1.04991e-09
-2.12317e-12
1.58049e-15
2.45728e-15
2.46403e-15
2.46548e-15
2.46571e-15