/*--------------------------------*- C++ -*----------------------------------*\
  =========                 |
  \\      /  F ield         | OpenFOAM: The Open Source CFD Toolbox
   \\    /   O peration     | Website:  https://openfoam.org
    \\  /    A nd           | Version:  8
     \\/     M anipulation  |
\*---------------------------------------------------------------------------*/
FoamFile
{
    version     2.0;
    format      ascii;
    class       volScalarField;
    location    "0.1";
    object      S1;
}
// * * * * * * * * * * * * * * * * * * * * * * * * * * * * * * * * * * * * * //

dimensions      [0 1 -1 0 0 0 0];

internalField   nonuniform List<scalar> 
180000
(
-1.25843e-55
-4.0863e-50
-1.15657e-44
-2.97334e-39
-8.32683e-34
-1.25507e-55
-4.07542e-50
-1.15369e-44
-2.96749e-39
-8.31932e-34
-1.25499e-55
-4.0752e-50
-1.15364e-44
-2.96741e-39
-8.31922e-34
-1.25482e-55
-4.07471e-50
-1.15353e-44
-2.96722e-39
-8.31897e-34
-1.25481e-55
-4.07467e-50
-1.15352e-44
-2.9672e-39
-8.31895e-34
-1.25479e-55
-4.07463e-50
-1.15351e-44
-2.96719e-39
-8.31894e-34
-1.25479e-55
-4.07462e-50
-1.15351e-44
-2.96719e-39
-8.31894e-34
-1.25479e-55
-4.07462e-50
-1.15351e-44
-2.96719e-39
-8.31893e-34
-1.25479e-55
-4.07461e-50
-1.15351e-44
-2.96719e-39
-8.31893e-34
-1.25479e-55
-4.07461e-50
-1.15351e-44
-2.96718e-39
-8.31893e-34
-1.25479e-55
-4.07461e-50
-1.15351e-44
-2.96718e-39
-8.31893e-34
-1.25479e-55
-4.07461e-50
-1.15351e-44
-2.96719e-39
-8.31893e-34
-1.25479e-55
-4.07462e-50
-1.15351e-44
-2.96719e-39
-8.31893e-34
-1.25479e-55
-4.07462e-50
-1.15351e-44
-2.96719e-39
-8.31894e-34
-1.25479e-55
-4.07463e-50
-1.15351e-44
-2.96719e-39
-8.31894e-34
-1.25481e-55
-4.07467e-50
-1.15352e-44
-2.9672e-39
-8.31895e-34
-1.25482e-55
-4.07471e-50
-1.15353e-44
-2.96722e-39
-8.31897e-34
-1.25499e-55
-4.0752e-50
-1.15364e-44
-2.96741e-39
-8.31922e-34
-1.25507e-55
-4.07542e-50
-1.15369e-44
-2.96749e-39
-8.31932e-34
-1.25843e-55
-4.0863e-50
-1.15657e-44
-2.97334e-39
-8.32683e-34
-1.1316e-52
-3.64763e-47
-1.01803e-41
-2.40196e-36
-8.06633e-31
-1.12728e-52
-3.63347e-47
-1.01418e-41
-2.3937e-36
-8.05253e-31
-1.12719e-52
-3.63322e-47
-1.01412e-41
-2.39361e-36
-8.05241e-31
-1.12699e-52
-3.6326e-47
-1.01398e-41
-2.39336e-36
-8.05203e-31
-1.12697e-52
-3.63256e-47
-1.01397e-41
-2.39334e-36
-8.05201e-31
-1.12695e-52
-3.63251e-47
-1.01395e-41
-2.39332e-36
-8.05199e-31
-1.12695e-52
-3.6325e-47
-1.01395e-41
-2.39332e-36
-8.05199e-31
-1.12695e-52
-3.63249e-47
-1.01395e-41
-2.39332e-36
-8.05198e-31
-1.12695e-52
-3.63249e-47
-1.01395e-41
-2.39332e-36
-8.05198e-31
-1.12695e-52
-3.63249e-47
-1.01395e-41
-2.39332e-36
-8.05198e-31
-1.12695e-52
-3.63249e-47
-1.01395e-41
-2.39332e-36
-8.05198e-31
-1.12695e-52
-3.63249e-47
-1.01395e-41
-2.39332e-36
-8.05198e-31
-1.12695e-52
-3.63249e-47
-1.01395e-41
-2.39332e-36
-8.05198e-31
-1.12695e-52
-3.6325e-47
-1.01395e-41
-2.39332e-36
-8.05199e-31
-1.12695e-52
-3.63251e-47
-1.01395e-41
-2.39332e-36
-8.05199e-31
-1.12697e-52
-3.63256e-47
-1.01397e-41
-2.39334e-36
-8.05201e-31
-1.12699e-52
-3.6326e-47
-1.01398e-41
-2.39336e-36
-8.05203e-31
-1.12719e-52
-3.63322e-47
-1.01412e-41
-2.39361e-36
-8.05241e-31
-1.12728e-52
-3.63347e-47
-1.01418e-41
-2.3937e-36
-8.05253e-31
-1.1316e-52
-3.64763e-47
-1.01803e-41
-2.40196e-36
-8.06633e-31
-1.55494e-49
-5.13806e-44
-1.47299e-38
-3.56717e-33
-1.19207e-27
-1.54908e-49
-5.11841e-44
-1.46752e-38
-3.55509e-33
-1.19006e-27
-1.54897e-49
-5.11807e-44
-1.46744e-38
-3.55496e-33
-1.19004e-27
-1.54869e-49
-5.11723e-44
-1.46724e-38
-3.5546e-33
-1.18998e-27
-1.54867e-49
-5.11717e-44
-1.46722e-38
-3.55458e-33
-1.18998e-27
-1.54865e-49
-5.11711e-44
-1.46721e-38
-3.55455e-33
-1.18998e-27
-1.54865e-49
-5.1171e-44
-1.4672e-38
-3.55455e-33
-1.18998e-27
-1.54864e-49
-5.11709e-44
-1.4672e-38
-3.55455e-33
-1.18998e-27
-1.54864e-49
-5.11709e-44
-1.4672e-38
-3.55455e-33
-1.18998e-27
-1.54864e-49
-5.11708e-44
-1.4672e-38
-3.55455e-33
-1.18998e-27
-1.54864e-49
-5.11708e-44
-1.4672e-38
-3.55455e-33
-1.18998e-27
-1.54864e-49
-5.11709e-44
-1.4672e-38
-3.55455e-33
-1.18998e-27
-1.54864e-49
-5.11709e-44
-1.4672e-38
-3.55455e-33
-1.18998e-27
-1.54865e-49
-5.1171e-44
-1.4672e-38
-3.55455e-33
-1.18998e-27
-1.54865e-49
-5.11711e-44
-1.46721e-38
-3.55455e-33
-1.18998e-27
-1.54867e-49
-5.11717e-44
-1.46722e-38
-3.55458e-33
-1.18998e-27
-1.54869e-49
-5.11723e-44
-1.46724e-38
-3.5546e-33
-1.18998e-27
-1.54897e-49
-5.11807e-44
-1.46744e-38
-3.55496e-33
-1.19004e-27
-1.54908e-49
-5.11841e-44
-1.46752e-38
-3.55509e-33
-1.19006e-27
-1.55494e-49
-5.13806e-44
-1.47299e-38
-3.56717e-33
-1.19207e-27
-1.90958e-46
-6.48846e-41
-1.91937e-35
-4.80167e-30
-1.60072e-24
-1.90249e-46
-6.46408e-41
-1.9124e-35
-4.78579e-30
-1.59807e-24
-1.90236e-46
-6.46367e-41
-1.9123e-35
-4.78562e-30
-1.59805e-24
-1.90204e-46
-6.46267e-41
-1.91205e-35
-4.78515e-30
-1.59798e-24
-1.90201e-46
-6.46259e-41
-1.91203e-35
-4.78512e-30
-1.59798e-24
-1.90198e-46
-6.46251e-41
-1.91201e-35
-4.78509e-30
-1.59797e-24
-1.90198e-46
-6.46249e-41
-1.91201e-35
-4.78508e-30
-1.59797e-24
-1.90198e-46
-6.46248e-41
-1.91201e-35
-4.78508e-30
-1.59797e-24
-1.90198e-46
-6.46248e-41
-1.91201e-35
-4.78508e-30
-1.59797e-24
-1.90198e-46
-6.46248e-41
-1.912e-35
-4.78508e-30
-1.59797e-24
-1.90198e-46
-6.46248e-41
-1.912e-35
-4.78508e-30
-1.59797e-24
-1.90198e-46
-6.46248e-41
-1.91201e-35
-4.78508e-30
-1.59797e-24
-1.90198e-46
-6.46248e-41
-1.91201e-35
-4.78508e-30
-1.59797e-24
-1.90198e-46
-6.46249e-41
-1.91201e-35
-4.78508e-30
-1.59797e-24
-1.90198e-46
-6.46251e-41
-1.91201e-35
-4.78509e-30
-1.59797e-24
-1.90201e-46
-6.46259e-41
-1.91203e-35
-4.78512e-30
-1.59798e-24
-1.90204e-46
-6.46267e-41
-1.91205e-35
-4.78515e-30
-1.59798e-24
-1.90236e-46
-6.46368e-41
-1.9123e-35
-4.78562e-30
-1.59805e-24
-1.90249e-46
-6.46408e-41
-1.9124e-35
-4.78579e-30
-1.59807e-24
-1.90958e-46
-6.48846e-41
-1.91937e-35
-4.80167e-30
-1.60072e-24
-2.05665e-43
-7.21162e-38
-2.21196e-32
-5.76171e-27
-1.92457e-21
-2.04914e-43
-7.1851e-38
-2.20414e-32
-5.74325e-27
-1.92149e-21
-2.049e-43
-7.18467e-38
-2.20403e-32
-5.74306e-27
-1.92147e-21
-2.04867e-43
-7.1836e-38
-2.20376e-32
-5.74252e-27
-1.92138e-21
-2.04864e-43
-7.18352e-38
-2.20374e-32
-5.74249e-27
-1.92138e-21
-2.04861e-43
-7.18343e-38
-2.20372e-32
-5.74245e-27
-1.92137e-21
-2.04861e-43
-7.18342e-38
-2.20371e-32
-5.74244e-27
-1.92137e-21
-2.04861e-43
-7.18341e-38
-2.20371e-32
-5.74244e-27
-1.92137e-21
-2.04861e-43
-7.18341e-38
-2.20371e-32
-5.74244e-27
-1.92137e-21
-2.0486e-43
-7.1834e-38
-2.20371e-32
-5.74244e-27
-1.92137e-21
-2.0486e-43
-7.1834e-38
-2.20371e-32
-5.74244e-27
-1.92137e-21
-2.04861e-43
-7.18341e-38
-2.20371e-32
-5.74244e-27
-1.92137e-21
-2.04861e-43
-7.18341e-38
-2.20371e-32
-5.74244e-27
-1.92137e-21
-2.04861e-43
-7.18342e-38
-2.20371e-32
-5.74244e-27
-1.92137e-21
-2.04861e-43
-7.18343e-38
-2.20372e-32
-5.74245e-27
-1.92137e-21
-2.04864e-43
-7.18352e-38
-2.20374e-32
-5.74249e-27
-1.92138e-21
-2.04867e-43
-7.1836e-38
-2.20376e-32
-5.74252e-27
-1.92138e-21
-2.049e-43
-7.18467e-38
-2.20403e-32
-5.74306e-27
-1.92147e-21
-2.04914e-43
-7.1851e-38
-2.20414e-32
-5.74325e-27
-1.92149e-21
-2.05665e-43
-7.21162e-38
-2.21196e-32
-5.76171e-27
-1.92457e-21
-1.89425e-40
-6.88531e-35
-2.20339e-29
-6.03102e-24
-2.0333e-18
-1.88747e-40
-6.86064e-35
-2.19586e-29
-6.01254e-24
-2.03022e-18
-1.88735e-40
-6.86025e-35
-2.19577e-29
-6.01236e-24
-2.0302e-18
-1.88706e-40
-6.85929e-35
-2.19551e-29
-6.01182e-24
-2.03012e-18
-1.88703e-40
-6.85922e-35
-2.19549e-29
-6.01179e-24
-2.03011e-18
-1.88701e-40
-6.85913e-35
-2.19547e-29
-6.01175e-24
-2.0301e-18
-1.887e-40
-6.85912e-35
-2.19547e-29
-6.01174e-24
-2.0301e-18
-1.887e-40
-6.85911e-35
-2.19546e-29
-6.01174e-24
-2.0301e-18
-1.887e-40
-6.85911e-35
-2.19546e-29
-6.01174e-24
-2.0301e-18
-1.887e-40
-6.85911e-35
-2.19546e-29
-6.01174e-24
-2.0301e-18
-1.887e-40
-6.85911e-35
-2.19546e-29
-6.01174e-24
-2.0301e-18
-1.887e-40
-6.85911e-35
-2.19546e-29
-6.01174e-24
-2.0301e-18
-1.887e-40
-6.85911e-35
-2.19546e-29
-6.01174e-24
-2.0301e-18
-1.887e-40
-6.85912e-35
-2.19547e-29
-6.01174e-24
-2.0301e-18
-1.88701e-40
-6.85913e-35
-2.19547e-29
-6.01175e-24
-2.0301e-18
-1.88703e-40
-6.85922e-35
-2.19549e-29
-6.01179e-24
-2.03011e-18
-1.88706e-40
-6.85929e-35
-2.19551e-29
-6.01182e-24
-2.03012e-18
-1.88735e-40
-6.86025e-35
-2.19577e-29
-6.01236e-24
-2.0302e-18
-1.88747e-40
-6.86064e-35
-2.19586e-29
-6.01254e-24
-2.03022e-18
-1.89425e-40
-6.88531e-35
-2.20339e-29
-6.03102e-24
-2.0333e-18
-1.43814e-37
-5.45127e-32
-1.83534e-26
-5.34257e-21
-1.84003e-15
-1.43311e-37
-5.43236e-32
-1.82935e-26
-5.3272e-21
-1.83749e-15
-1.43303e-37
-5.43207e-32
-1.82927e-26
-5.32704e-21
-1.83747e-15
-1.43282e-37
-5.43136e-32
-1.82907e-26
-5.3266e-21
-1.83739e-15
-1.4328e-37
-5.4313e-32
-1.82906e-26
-5.32657e-21
-1.83739e-15
-1.43278e-37
-5.43123e-32
-1.82904e-26
-5.32653e-21
-1.83738e-15
-1.43278e-37
-5.43122e-32
-1.82904e-26
-5.32653e-21
-1.83738e-15
-1.43278e-37
-5.43122e-32
-1.82903e-26
-5.32652e-21
-1.83738e-15
-1.43278e-37
-5.43122e-32
-1.82903e-26
-5.32652e-21
-1.83738e-15
-1.43278e-37
-5.43121e-32
-1.82903e-26
-5.32652e-21
-1.83738e-15
-1.43278e-37
-5.43121e-32
-1.82903e-26
-5.32652e-21
-1.83738e-15
-1.43278e-37
-5.43122e-32
-1.82903e-26
-5.32652e-21
-1.83738e-15
-1.43278e-37
-5.43122e-32
-1.82903e-26
-5.32652e-21
-1.83738e-15
-1.43278e-37
-5.43122e-32
-1.82904e-26
-5.32653e-21
-1.83738e-15
-1.43278e-37
-5.43123e-32
-1.82904e-26
-5.32653e-21
-1.83738e-15
-1.4328e-37
-5.4313e-32
-1.82906e-26
-5.32657e-21
-1.83739e-15
-1.43282e-37
-5.43136e-32
-1.82907e-26
-5.3266e-21
-1.83739e-15
-1.43303e-37
-5.43207e-32
-1.82927e-26
-5.32704e-21
-1.83747e-15
-1.43311e-37
-5.43236e-32
-1.82935e-26
-5.3272e-21
-1.83749e-15
-1.43814e-37
-5.45127e-32
-1.83534e-26
-5.34257e-21
-1.84003e-15
-8.48577e-35
-3.38236e-29
-1.21251e-23
-3.81987e-18
-1.37231e-12
-8.45697e-35
-3.37111e-29
-1.20878e-23
-3.80982e-18
-1.37067e-12
-8.45649e-35
-3.37094e-29
-1.20874e-23
-3.80972e-18
-1.37066e-12
-8.45534e-35
-3.37053e-29
-1.20861e-23
-3.80943e-18
-1.3706e-12
-8.45524e-35
-3.37049e-29
-1.2086e-23
-3.80941e-18
-1.3706e-12
-8.45514e-35
-3.37045e-29
-1.20859e-23
-3.80938e-18
-1.3706e-12
-8.45512e-35
-3.37045e-29
-1.20859e-23
-3.80938e-18
-1.37059e-12
-8.45511e-35
-3.37044e-29
-1.20859e-23
-3.80938e-18
-1.37059e-12
-8.4551e-35
-3.37044e-29
-1.20859e-23
-3.80937e-18
-1.37059e-12
-8.4551e-35
-3.37044e-29
-1.20859e-23
-3.80937e-18
-1.37059e-12
-8.4551e-35
-3.37044e-29
-1.20859e-23
-3.80937e-18
-1.37059e-12
-8.4551e-35
-3.37044e-29
-1.20859e-23
-3.80937e-18
-1.37059e-12
-8.45511e-35
-3.37044e-29
-1.20859e-23
-3.80938e-18
-1.37059e-12
-8.45512e-35
-3.37045e-29
-1.20859e-23
-3.80938e-18
-1.37059e-12
-8.45514e-35
-3.37045e-29
-1.20859e-23
-3.80938e-18
-1.3706e-12
-8.45525e-35
-3.37049e-29
-1.2086e-23
-3.80941e-18
-1.3706e-12
-8.45534e-35
-3.37053e-29
-1.20861e-23
-3.80943e-18
-1.3706e-12
-8.45649e-35
-3.37094e-29
-1.20874e-23
-3.80972e-18
-1.37066e-12
-8.45697e-35
-3.37111e-29
-1.20878e-23
-3.80982e-18
-1.37067e-12
-8.48577e-35
-3.38236e-29
-1.21251e-23
-3.81987e-18
-1.37231e-12
-3.48842e-32
-1.48013e-26
-5.75414e-21
-2.01802e-15
-7.86724e-10
-3.47703e-32
-1.47548e-26
-5.73788e-21
-2.01339e-15
-7.86013e-10
-3.47685e-32
-1.47541e-26
-5.73769e-21
-2.01334e-15
-7.86006e-10
-3.47641e-32
-1.47524e-26
-5.73715e-21
-2.0132e-15
-7.85977e-10
-3.47637e-32
-1.47523e-26
-5.73711e-21
-2.01319e-15
-7.85976e-10
-3.47633e-32
-1.47521e-26
-5.73706e-21
-2.01318e-15
-7.85973e-10
-3.47632e-32
-1.47521e-26
-5.73705e-21
-2.01318e-15
-7.85973e-10
-3.47632e-32
-1.47521e-26
-5.73705e-21
-2.01318e-15
-7.85973e-10
-3.47632e-32
-1.47521e-26
-5.73704e-21
-2.01318e-15
-7.85973e-10
-3.47631e-32
-1.47521e-26
-5.73704e-21
-2.01317e-15
-7.85973e-10
-3.47631e-32
-1.47521e-26
-5.73704e-21
-2.01317e-15
-7.85973e-10
-3.47632e-32
-1.47521e-26
-5.73704e-21
-2.01318e-15
-7.85973e-10
-3.47632e-32
-1.47521e-26
-5.73705e-21
-2.01318e-15
-7.85973e-10
-3.47632e-32
-1.47521e-26
-5.73705e-21
-2.01318e-15
-7.85973e-10
-3.47633e-32
-1.47521e-26
-5.73706e-21
-2.01318e-15
-7.85973e-10
-3.47637e-32
-1.47523e-26
-5.73711e-21
-2.01319e-15
-7.85976e-10
-3.47641e-32
-1.47524e-26
-5.73715e-21
-2.0132e-15
-7.85977e-10
-3.47685e-32
-1.47541e-26
-5.73769e-21
-2.01334e-15
-7.86006e-10
-3.47703e-32
-1.47548e-26
-5.73788e-21
-2.01339e-15
-7.86013e-10
-3.48842e-32
-1.48013e-26
-5.75414e-21
-2.01802e-15
-7.86724e-10
-7.60218e-30
-3.4987e-24
-1.52007e-18
-6.24308e-13
-2.88102e-07
-7.57867e-30
-3.48855e-24
-1.5163e-18
-6.23172e-13
-2.87971e-07
-7.57831e-30
-3.48841e-24
-1.51625e-18
-6.2316e-13
-2.87969e-07
-7.57742e-30
-3.48804e-24
-1.51612e-18
-6.2312e-13
-2.87959e-07
-7.57734e-30
-3.48801e-24
-1.51611e-18
-6.23117e-13
-2.87958e-07
-7.57725e-30
-3.48798e-24
-1.5161e-18
-6.23113e-13
-2.87957e-07
-7.57723e-30
-3.48797e-24
-1.5161e-18
-6.23113e-13
-2.87957e-07
-7.57722e-30
-3.48797e-24
-1.5161e-18
-6.23113e-13
-2.87957e-07
-7.57722e-30
-3.48797e-24
-1.5161e-18
-6.23113e-13
-2.87957e-07
-7.57722e-30
-3.48797e-24
-1.5161e-18
-6.23113e-13
-2.87957e-07
-7.57722e-30
-3.48797e-24
-1.5161e-18
-6.23113e-13
-2.87957e-07
-7.57722e-30
-3.48797e-24
-1.5161e-18
-6.23113e-13
-2.87957e-07
-7.57722e-30
-3.48797e-24
-1.5161e-18
-6.23113e-13
-2.87957e-07
-7.57723e-30
-3.48797e-24
-1.5161e-18
-6.23113e-13
-2.87957e-07
-7.57725e-30
-3.48798e-24
-1.5161e-18
-6.23113e-13
-2.87957e-07
-7.57734e-30
-3.48801e-24
-1.51611e-18
-6.23117e-13
-2.87958e-07
-7.57742e-30
-3.48804e-24
-1.51612e-18
-6.2312e-13
-2.87959e-07
-7.57831e-30
-3.48841e-24
-1.51625e-18
-6.2316e-13
-2.87969e-07
-7.57867e-30
-3.48855e-24
-1.5163e-18
-6.23172e-13
-2.87971e-07
-7.60218e-30
-3.4987e-24
-1.52007e-18
-6.24308e-13
-2.88102e-07
-1.66713e-29
-7.12274e-24
-2.67992e-18
-8.42383e-13
-2.02966e-07
-1.66438e-29
-7.11215e-24
-2.67682e-18
-8.4183e-13
-2.0305e-07
-1.66433e-29
-7.11197e-24
-2.67677e-18
-8.41818e-13
-2.03048e-07
-1.66421e-29
-7.11152e-24
-2.67664e-18
-8.41786e-13
-2.03045e-07
-1.6642e-29
-7.11148e-24
-2.67663e-18
-8.41784e-13
-2.03044e-07
-1.66419e-29
-7.11144e-24
-2.67661e-18
-8.41781e-13
-2.03044e-07
-1.66418e-29
-7.11143e-24
-2.67661e-18
-8.4178e-13
-2.03044e-07
-1.66418e-29
-7.11143e-24
-2.67661e-18
-8.4178e-13
-2.03044e-07
-1.66418e-29
-7.11142e-24
-2.67661e-18
-8.4178e-13
-2.03044e-07
-1.66418e-29
-7.11142e-24
-2.67661e-18
-8.4178e-13
-2.03044e-07
-1.66418e-29
-7.11142e-24
-2.67661e-18
-8.4178e-13
-2.03044e-07
-1.66418e-29
-7.11142e-24
-2.67661e-18
-8.4178e-13
-2.03044e-07
-1.66418e-29
-7.11143e-24
-2.67661e-18
-8.4178e-13
-2.03044e-07
-1.66418e-29
-7.11143e-24
-2.67661e-18
-8.4178e-13
-2.03044e-07
-1.66419e-29
-7.11144e-24
-2.67661e-18
-8.41781e-13
-2.03044e-07
-1.6642e-29
-7.11148e-24
-2.67663e-18
-8.41784e-13
-2.03044e-07
-1.66421e-29
-7.11152e-24
-2.67664e-18
-8.41786e-13
-2.03045e-07
-1.66433e-29
-7.11197e-24
-2.67677e-18
-8.41818e-13
-2.03048e-07
-1.66438e-29
-7.11215e-24
-2.67682e-18
-8.4183e-13
-2.0305e-07
-1.66713e-29
-7.12274e-24
-2.67992e-18
-8.42383e-13
-2.02966e-07
-1.92964e-29
-7.88187e-24
-2.72131e-18
-7.40942e-13
-1.27866e-07
-1.92923e-29
-7.88142e-24
-2.72191e-18
-7.41397e-13
-1.28047e-07
-1.92921e-29
-7.88134e-24
-2.72188e-18
-7.41393e-13
-1.28047e-07
-1.92916e-29
-7.88116e-24
-2.72184e-18
-7.41385e-13
-1.28047e-07
-1.92915e-29
-7.88115e-24
-2.72184e-18
-7.41384e-13
-1.28047e-07
-1.92915e-29
-7.88113e-24
-2.72183e-18
-7.41384e-13
-1.28047e-07
-1.92915e-29
-7.88113e-24
-2.72183e-18
-7.41384e-13
-1.28047e-07
-1.92915e-29
-7.88113e-24
-2.72183e-18
-7.41384e-13
-1.28047e-07
-1.92915e-29
-7.88113e-24
-2.72183e-18
-7.41384e-13
-1.28047e-07
-1.92915e-29
-7.88112e-24
-2.72183e-18
-7.41384e-13
-1.28047e-07
-1.92915e-29
-7.88112e-24
-2.72183e-18
-7.41384e-13
-1.28047e-07
-1.92915e-29
-7.88113e-24
-2.72183e-18
-7.41384e-13
-1.28047e-07
-1.92915e-29
-7.88113e-24
-2.72183e-18
-7.41384e-13
-1.28047e-07
-1.92915e-29
-7.88113e-24
-2.72183e-18
-7.41384e-13
-1.28047e-07
-1.92915e-29
-7.88113e-24
-2.72183e-18
-7.41384e-13
-1.28047e-07
-1.92915e-29
-7.88115e-24
-2.72184e-18
-7.41384e-13
-1.28047e-07
-1.92916e-29
-7.88116e-24
-2.72184e-18
-7.41385e-13
-1.28047e-07
-1.92921e-29
-7.88134e-24
-2.72188e-18
-7.41393e-13
-1.28047e-07
-1.92923e-29
-7.88142e-24
-2.72191e-18
-7.41397e-13
-1.28047e-07
-1.92964e-29
-7.88187e-24
-2.72131e-18
-7.40942e-13
-1.27866e-07
-1.54927e-29
-6.16026e-24
-2.01729e-18
-5.0677e-13
-7.17761e-08
-1.5512e-29
-6.1688e-24
-2.02055e-18
-5.07758e-13
-7.19585e-08
-1.55121e-29
-6.16882e-24
-2.02056e-18
-5.0776e-13
-7.19586e-08
-1.55123e-29
-6.16892e-24
-2.0206e-18
-5.07769e-13
-7.19601e-08
-1.55123e-29
-6.16893e-24
-2.0206e-18
-5.07769e-13
-7.19601e-08
-1.55124e-29
-6.16894e-24
-2.0206e-18
-5.0777e-13
-7.19603e-08
-1.55124e-29
-6.16894e-24
-2.0206e-18
-5.07771e-13
-7.19603e-08
-1.55124e-29
-6.16895e-24
-2.0206e-18
-5.07771e-13
-7.19604e-08
-1.55124e-29
-6.16895e-24
-2.0206e-18
-5.07771e-13
-7.19604e-08
-1.55124e-29
-6.16895e-24
-2.0206e-18
-5.07771e-13
-7.19604e-08
-1.55124e-29
-6.16895e-24
-2.0206e-18
-5.07771e-13
-7.19604e-08
-1.55124e-29
-6.16895e-24
-2.0206e-18
-5.07771e-13
-7.19604e-08
-1.55124e-29
-6.16895e-24
-2.0206e-18
-5.07771e-13
-7.19604e-08
-1.55124e-29
-6.16894e-24
-2.0206e-18
-5.07771e-13
-7.19603e-08
-1.55124e-29
-6.16894e-24
-2.0206e-18
-5.0777e-13
-7.19603e-08
-1.55123e-29
-6.16893e-24
-2.0206e-18
-5.07769e-13
-7.19601e-08
-1.55123e-29
-6.16892e-24
-2.0206e-18
-5.07769e-13
-7.19601e-08
-1.55121e-29
-6.16882e-24
-2.02056e-18
-5.0776e-13
-7.19586e-08
-1.5512e-29
-6.1688e-24
-2.02055e-18
-5.07758e-13
-7.19585e-08
-1.54927e-29
-6.16026e-24
-2.01729e-18
-5.0677e-13
-7.17761e-08
-9.63026e-30
-3.77207e-24
-1.19613e-18
-2.87668e-13
-3.60334e-08
-9.65628e-30
-3.78278e-24
-1.19976e-18
-2.88624e-13
-3.61688e-08
-9.65648e-30
-3.78285e-24
-1.19978e-18
-2.88628e-13
-3.6169e-08
-9.65701e-30
-3.78305e-24
-1.19984e-18
-2.88641e-13
-3.61704e-08
-9.65706e-30
-3.78306e-24
-1.19984e-18
-2.88642e-13
-3.61705e-08
-9.65713e-30
-3.78309e-24
-1.19985e-18
-2.88643e-13
-3.61707e-08
-9.65714e-30
-3.78309e-24
-1.19985e-18
-2.88644e-13
-3.61707e-08
-9.65715e-30
-3.7831e-24
-1.19985e-18
-2.88644e-13
-3.61708e-08
-9.65715e-30
-3.7831e-24
-1.19985e-18
-2.88644e-13
-3.61708e-08
-9.65715e-30
-3.7831e-24
-1.19985e-18
-2.88644e-13
-3.61708e-08
-9.65715e-30
-3.7831e-24
-1.19985e-18
-2.88644e-13
-3.61708e-08
-9.65715e-30
-3.7831e-24
-1.19985e-18
-2.88644e-13
-3.61708e-08
-9.65715e-30
-3.7831e-24
-1.19985e-18
-2.88644e-13
-3.61708e-08
-9.65714e-30
-3.78309e-24
-1.19985e-18
-2.88644e-13
-3.61707e-08
-9.65713e-30
-3.78309e-24
-1.19985e-18
-2.88643e-13
-3.61707e-08
-9.65706e-30
-3.78306e-24
-1.19984e-18
-2.88642e-13
-3.61705e-08
-9.65701e-30
-3.78305e-24
-1.19984e-18
-2.88641e-13
-3.61704e-08
-9.65648e-30
-3.78285e-24
-1.19978e-18
-2.88628e-13
-3.6169e-08
-9.65628e-30
-3.78278e-24
-1.19976e-18
-2.88624e-13
-3.61688e-08
-9.63026e-30
-3.77207e-24
-1.19613e-18
-2.87668e-13
-3.60334e-08
-4.91863e-30
-1.91366e-24
-5.95999e-19
-1.40565e-13
-1.6283e-08
-4.93915e-30
-1.9219e-24
-5.98663e-19
-1.4123e-13
-1.63652e-08
-4.93933e-30
-1.92196e-24
-5.98679e-19
-1.41233e-13
-1.63654e-08
-4.93977e-30
-1.92212e-24
-5.98724e-19
-1.41243e-13
-1.63663e-08
-4.93982e-30
-1.92214e-24
-5.98729e-19
-1.41244e-13
-1.63663e-08
-4.93987e-30
-1.92216e-24
-5.98734e-19
-1.41245e-13
-1.63665e-08
-4.93989e-30
-1.92216e-24
-5.98735e-19
-1.41245e-13
-1.63665e-08
-4.93989e-30
-1.92216e-24
-5.98736e-19
-1.41245e-13
-1.63665e-08
-4.93989e-30
-1.92216e-24
-5.98736e-19
-1.41245e-13
-1.63665e-08
-4.93989e-30
-1.92216e-24
-5.98736e-19
-1.41245e-13
-1.63665e-08
-4.93989e-30
-1.92216e-24
-5.98736e-19
-1.41245e-13
-1.63665e-08
-4.93989e-30
-1.92216e-24
-5.98736e-19
-1.41245e-13
-1.63665e-08
-4.93989e-30
-1.92216e-24
-5.98736e-19
-1.41245e-13
-1.63665e-08
-4.93989e-30
-1.92216e-24
-5.98735e-19
-1.41245e-13
-1.63665e-08
-4.93987e-30
-1.92216e-24
-5.98734e-19
-1.41245e-13
-1.63665e-08
-4.93982e-30
-1.92214e-24
-5.98729e-19
-1.41244e-13
-1.63663e-08
-4.93977e-30
-1.92212e-24
-5.98724e-19
-1.41243e-13
-1.63663e-08
-4.93933e-30
-1.92196e-24
-5.98679e-19
-1.41233e-13
-1.63654e-08
-4.93915e-30
-1.9219e-24
-5.98663e-19
-1.4123e-13
-1.63652e-08
-4.91863e-30
-1.91366e-24
-5.95999e-19
-1.40565e-13
-1.6283e-08
-2.14285e-30
-8.33218e-25
-2.57532e-19
-6.05933e-14
-6.67233e-09
-2.15496e-30
-8.38033e-25
-2.59057e-19
-6.09658e-14
-6.71499e-09
-2.15506e-30
-8.38071e-25
-2.59067e-19
-6.09678e-14
-6.71511e-09
-2.15533e-30
-8.38167e-25
-2.59093e-19
-6.09734e-14
-6.71558e-09
-2.15536e-30
-8.38177e-25
-2.59095e-19
-6.09739e-14
-6.71562e-09
-2.15539e-30
-8.38189e-25
-2.59099e-19
-6.09746e-14
-6.71569e-09
-2.1554e-30
-8.38191e-25
-2.59099e-19
-6.09747e-14
-6.7157e-09
-2.1554e-30
-8.38193e-25
-2.591e-19
-6.09748e-14
-6.71571e-09
-2.1554e-30
-8.38193e-25
-2.591e-19
-6.09749e-14
-6.71571e-09
-2.1554e-30
-8.38193e-25
-2.591e-19
-6.09748e-14
-6.71571e-09
-2.1554e-30
-8.38193e-25
-2.591e-19
-6.09748e-14
-6.71571e-09
-2.1554e-30
-8.38193e-25
-2.591e-19
-6.09749e-14
-6.71571e-09
-2.1554e-30
-8.38193e-25
-2.591e-19
-6.09748e-14
-6.71571e-09
-2.1554e-30
-8.38191e-25
-2.59099e-19
-6.09747e-14
-6.7157e-09
-2.15539e-30
-8.38189e-25
-2.59099e-19
-6.09746e-14
-6.71569e-09
-2.15536e-30
-8.38177e-25
-2.59095e-19
-6.09739e-14
-6.71562e-09
-2.15533e-30
-8.38167e-25
-2.59093e-19
-6.09734e-14
-6.71558e-09
-2.15506e-30
-8.38071e-25
-2.59067e-19
-6.09678e-14
-6.71511e-09
-2.15496e-30
-8.38033e-25
-2.59057e-19
-6.09658e-14
-6.71499e-09
-2.14285e-30
-8.33218e-25
-2.57532e-19
-6.05933e-14
-6.67233e-09
-8.17073e-31
-3.19039e-25
-9.86545e-20
-2.34589e-14
-2.49807e-09
-8.22908e-31
-3.21357e-25
-9.9383e-20
-2.3637e-14
-2.5175e-09
-8.22961e-31
-3.21375e-25
-9.93877e-20
-2.36379e-14
-2.51756e-09
-8.23088e-31
-3.21421e-25
-9.94001e-20
-2.36406e-14
-2.51777e-09
-8.23102e-31
-3.21426e-25
-9.94014e-20
-2.36409e-14
-2.51779e-09
-8.23117e-31
-3.21432e-25
-9.94029e-20
-2.36412e-14
-2.51783e-09
-8.23121e-31
-3.21433e-25
-9.94033e-20
-2.36413e-14
-2.51783e-09
-8.23123e-31
-3.21433e-25
-9.94035e-20
-2.36413e-14
-2.51784e-09
-8.23123e-31
-3.21434e-25
-9.94035e-20
-2.36413e-14
-2.51784e-09
-8.23123e-31
-3.21434e-25
-9.94035e-20
-2.36413e-14
-2.51784e-09
-8.23123e-31
-3.21434e-25
-9.94035e-20
-2.36413e-14
-2.51784e-09
-8.23123e-31
-3.21434e-25
-9.94035e-20
-2.36413e-14
-2.51784e-09
-8.23123e-31
-3.21433e-25
-9.94035e-20
-2.36413e-14
-2.51784e-09
-8.23121e-31
-3.21433e-25
-9.94033e-20
-2.36413e-14
-2.51783e-09
-8.23117e-31
-3.21432e-25
-9.94029e-20
-2.36412e-14
-2.51783e-09
-8.23102e-31
-3.21426e-25
-9.94014e-20
-2.36409e-14
-2.51779e-09
-8.23088e-31
-3.21421e-25
-9.94001e-20
-2.36406e-14
-2.51777e-09
-8.22961e-31
-3.21375e-25
-9.93877e-20
-2.36379e-14
-2.51756e-09
-8.22908e-31
-3.21357e-25
-9.9383e-20
-2.3637e-14
-2.5175e-09
-8.17073e-31
-3.19039e-25
-9.86545e-20
-2.34589e-14
-2.49807e-09
-2.77867e-31
-1.09371e-25
-3.40586e-20
-8.26881e-15
-8.60782e-10
-2.80269e-31
-1.1033e-25
-3.43605e-20
-8.34368e-15
-8.68701e-10
-2.8029e-31
-1.10337e-25
-3.43624e-20
-8.34409e-15
-8.68725e-10
-2.80341e-31
-1.10356e-25
-3.43674e-20
-8.34518e-15
-8.68808e-10
-2.80346e-31
-1.10358e-25
-3.4368e-20
-8.34529e-15
-8.68817e-10
-2.80353e-31
-1.1036e-25
-3.43686e-20
-8.34543e-15
-8.6883e-10
-2.80354e-31
-1.1036e-25
-3.43687e-20
-8.34546e-15
-8.68832e-10
-2.80355e-31
-1.10361e-25
-3.43688e-20
-8.34548e-15
-8.68834e-10
-2.80355e-31
-1.10361e-25
-3.43688e-20
-8.34548e-15
-8.68835e-10
-2.80355e-31
-1.10361e-25
-3.43688e-20
-8.34548e-15
-8.68835e-10
-2.80355e-31
-1.10361e-25
-3.43688e-20
-8.34548e-15
-8.68835e-10
-2.80355e-31
-1.10361e-25
-3.43688e-20
-8.34548e-15
-8.68835e-10
-2.80355e-31
-1.10361e-25
-3.43688e-20
-8.34548e-15
-8.68834e-10
-2.80354e-31
-1.1036e-25
-3.43687e-20
-8.34546e-15
-8.68832e-10
-2.80353e-31
-1.1036e-25
-3.43686e-20
-8.34543e-15
-8.6883e-10
-2.80346e-31
-1.10358e-25
-3.4368e-20
-8.34529e-15
-8.68817e-10
-2.80341e-31
-1.10356e-25
-3.43674e-20
-8.34518e-15
-8.68808e-10
-2.8029e-31
-1.10337e-25
-3.43624e-20
-8.34409e-15
-8.68725e-10
-2.80269e-31
-1.1033e-25
-3.43605e-20
-8.34368e-15
-8.68701e-10
-2.77867e-31
-1.09371e-25
-3.40586e-20
-8.26881e-15
-8.60782e-10
-8.55014e-32
-3.40337e-26
-1.07317e-20
-2.68167e-15
-2.74913e-10
-8.63699e-32
-3.43835e-26
-1.08429e-20
-2.70993e-15
-2.77838e-10
-8.63776e-32
-3.43862e-26
-1.08436e-20
-2.71008e-15
-2.77847e-10
-8.63952e-32
-3.43927e-26
-1.08454e-20
-2.71048e-15
-2.77876e-10
-8.63973e-32
-3.43934e-26
-1.08456e-20
-2.71052e-15
-2.7788e-10
-8.63997e-32
-3.43943e-26
-1.08458e-20
-2.71057e-15
-2.77885e-10
-8.64001e-32
-3.43945e-26
-1.08459e-20
-2.71059e-15
-2.77886e-10
-8.64004e-32
-3.43946e-26
-1.08459e-20
-2.71059e-15
-2.77886e-10
-8.64005e-32
-3.43946e-26
-1.08459e-20
-2.71059e-15
-2.77886e-10
-8.64005e-32
-3.43946e-26
-1.08459e-20
-2.71059e-15
-2.77886e-10
-8.64005e-32
-3.43946e-26
-1.08459e-20
-2.71059e-15
-2.77886e-10
-8.64005e-32
-3.43946e-26
-1.08459e-20
-2.71059e-15
-2.77886e-10
-8.64004e-32
-3.43946e-26
-1.08459e-20
-2.71059e-15
-2.77886e-10
-8.64001e-32
-3.43945e-26
-1.08459e-20
-2.71059e-15
-2.77886e-10
-8.63997e-32
-3.43943e-26
-1.08458e-20
-2.71057e-15
-2.77885e-10
-8.63973e-32
-3.43934e-26
-1.08456e-20
-2.71052e-15
-2.7788e-10
-8.63952e-32
-3.43927e-26
-1.08454e-20
-2.71048e-15
-2.77876e-10
-8.63775e-32
-3.43862e-26
-1.08436e-20
-2.71008e-15
-2.77847e-10
-8.63699e-32
-3.43835e-26
-1.08429e-20
-2.70993e-15
-2.77838e-10
-8.55014e-32
-3.40337e-26
-1.07317e-20
-2.68167e-15
-2.74913e-10
-2.40774e-32
-9.7184e-27
-3.11743e-21
-8.06643e-16
-8.19368e-11
-2.43588e-32
-9.83309e-27
-3.15442e-21
-8.16356e-16
-8.29282e-11
-2.43612e-32
-9.83396e-27
-3.15465e-21
-8.16408e-16
-8.29311e-11
-2.43667e-32
-9.836e-27
-3.15521e-21
-8.16538e-16
-8.29405e-11
-2.43674e-32
-9.83624e-27
-3.15528e-21
-8.16553e-16
-8.29417e-11
-2.43681e-32
-9.83652e-27
-3.15536e-21
-8.16571e-16
-8.29433e-11
-2.43683e-32
-9.83658e-27
-3.15537e-21
-8.16575e-16
-8.29436e-11
-2.43684e-32
-9.83661e-27
-3.15538e-21
-8.16578e-16
-8.29439e-11
-2.43684e-32
-9.83662e-27
-3.15539e-21
-8.16578e-16
-8.29439e-11
-2.43684e-32
-9.83662e-27
-3.15539e-21
-8.16578e-16
-8.29439e-11
-2.43684e-32
-9.83662e-27
-3.15539e-21
-8.16578e-16
-8.29439e-11
-2.43684e-32
-9.83662e-27
-3.15539e-21
-8.16578e-16
-8.29439e-11
-2.43684e-32
-9.83661e-27
-3.15538e-21
-8.16578e-16
-8.29439e-11
-2.43683e-32
-9.83658e-27
-3.15537e-21
-8.16575e-16
-8.29436e-11
-2.43681e-32
-9.83652e-27
-3.15536e-21
-8.16571e-16
-8.29433e-11
-2.43674e-32
-9.83624e-27
-3.15528e-21
-8.16553e-16
-8.29417e-11
-2.43667e-32
-9.836e-27
-3.15521e-21
-8.16538e-16
-8.29405e-11
-2.43612e-32
-9.83396e-27
-3.15465e-21
-8.16408e-16
-8.29311e-11
-2.43588e-32
-9.83309e-27
-3.15442e-21
-8.16356e-16
-8.29282e-11
-2.40774e-32
-9.7184e-27
-3.11743e-21
-8.06643e-16
-8.19368e-11
-4.54743e-28
-1.94509e-28
4.79941e-29
5.0199e-29
5.09308e-29
5.09411e-29
5.09438e-29
5.0944e-29
5.09448e-29
5.09449e-29
5.09449e-29
5.09449e-29
5.09454e-29
5.09473e-29
5.09716e-29
5.10319e-29
5.18806e-29
5.30196e-29
7.79693e-29
9.07066e-29
-4.54833e-28
-1.94616e-28
4.7992e-29
5.01983e-29
5.09307e-29
5.0941e-29
5.09437e-29
5.09437e-29
5.09438e-29
5.09438e-29
5.09438e-29
5.09438e-29
5.09438e-29
5.09454e-29
5.09697e-29
5.10302e-29
5.18802e-29
5.30205e-29
7.80083e-29
9.07545e-29
-4.54832e-28
-1.94616e-28
4.7992e-29
5.01984e-29
5.09308e-29
5.0941e-29
5.09437e-29
5.09438e-29
5.09438e-29
5.09438e-29
5.09438e-29
5.09438e-29
5.0944e-29
5.09459e-29
5.09702e-29
5.10306e-29
5.18807e-29
5.3021e-29
7.80092e-29
9.07555e-29
-4.54831e-28
-1.94616e-28
4.7992e-29
5.01984e-29
5.09308e-29
5.0941e-29
5.09437e-29
5.09438e-29
5.09438e-29
5.09438e-29
5.09438e-29
5.09438e-29
5.09442e-29
5.09462e-29
5.09705e-29
5.10309e-29
5.1881e-29
5.30214e-29
7.80098e-29
9.0756e-29
-4.54831e-28
-1.94616e-28
4.7992e-29
5.01983e-29
5.09307e-29
5.0941e-29
5.09437e-29
5.09438e-29
5.09438e-29
5.09438e-29
5.09438e-29
5.09438e-29
5.09442e-29
5.09462e-29
5.09705e-29
5.10309e-29
5.1881e-29
5.30214e-29
7.80098e-29
9.0756e-29
-4.54831e-28
-1.94616e-28
4.7992e-29
5.01983e-29
5.09307e-29
5.0941e-29
5.09437e-29
5.09438e-29
5.09438e-29
5.09438e-29
5.09438e-29
5.09438e-29
5.09442e-29
5.09462e-29
5.09705e-29
5.10309e-29
5.1881e-29
5.30214e-29
7.80098e-29
9.0756e-29
-4.54831e-28
-1.94616e-28
4.7992e-29
5.01984e-29
5.09308e-29
5.0941e-29
5.09437e-29
5.09438e-29
5.09438e-29
5.09438e-29
5.09438e-29
5.09438e-29
5.09442e-29
5.09462e-29
5.09705e-29
5.1031e-29
5.18811e-29
5.30214e-29
7.80098e-29
9.0756e-29
-4.54831e-28
-1.94616e-28
4.7992e-29
5.01984e-29
5.09308e-29
5.0941e-29
5.09437e-29
5.09438e-29
5.09438e-29
5.09438e-29
5.09438e-29
5.09438e-29
5.09442e-29
5.09462e-29
5.09705e-29
5.1031e-29
5.18811e-29
5.30214e-29
7.80098e-29
9.0756e-29
-4.54831e-28
-1.94616e-28
4.7992e-29
5.01984e-29
5.09308e-29
5.0941e-29
5.09437e-29
5.09438e-29
5.09438e-29
5.09438e-29
5.09438e-29
5.09438e-29
5.09442e-29
5.09462e-29
5.09705e-29
5.1031e-29
5.18811e-29
5.30214e-29
7.80098e-29
9.0756e-29
-4.54831e-28
-1.94616e-28
4.7992e-29
5.01983e-29
5.09307e-29
5.0941e-29
5.09437e-29
5.09438e-29
5.09438e-29
5.09438e-29
5.09438e-29
5.09438e-29
5.09442e-29
5.09462e-29
5.09705e-29
5.10309e-29
5.1881e-29
5.30214e-29
7.80098e-29
9.0756e-29
-4.54831e-28
-1.94616e-28
4.7992e-29
5.01983e-29
5.09307e-29
5.0941e-29
5.09437e-29
5.09438e-29
5.09438e-29
5.09438e-29
5.09438e-29
5.09438e-29
5.09442e-29
5.09462e-29
5.09705e-29
5.10309e-29
5.1881e-29
5.30214e-29
7.80098e-29
9.0756e-29
-4.54831e-28
-1.94616e-28
4.7992e-29
5.01984e-29
5.09308e-29
5.0941e-29
5.09437e-29
5.09438e-29
5.09438e-29
5.09438e-29
5.09438e-29
5.09438e-29
5.09442e-29
5.09462e-29
5.09705e-29
5.1031e-29
5.18811e-29
5.30214e-29
7.80098e-29
9.0756e-29
-4.54831e-28
-1.94616e-28
4.7992e-29
5.01984e-29
5.09308e-29
5.0941e-29
5.09437e-29
5.09438e-29
5.09438e-29
5.09438e-29
5.09438e-29
5.09438e-29
5.09442e-29
5.09462e-29
5.09705e-29
5.1031e-29
5.18811e-29
5.30214e-29
7.80098e-29
9.0756e-29
-4.54831e-28
-1.94616e-28
4.7992e-29
5.01984e-29
5.09308e-29
5.0941e-29
5.09437e-29
5.09438e-29
5.09438e-29
5.09438e-29
5.09438e-29
5.09438e-29
5.09442e-29
5.09462e-29
5.09705e-29
5.1031e-29
5.18811e-29
5.30214e-29
7.80098e-29
9.0756e-29
-4.54831e-28
-1.94616e-28
4.7992e-29
5.01983e-29
5.09307e-29
5.0941e-29
5.09437e-29
5.09438e-29
5.09438e-29
5.09438e-29
5.09438e-29
5.09438e-29
5.09442e-29
5.09462e-29
5.09705e-29