/*--------------------------------*- C++ -*----------------------------------*\
  =========                 |
  \\      /  F ield         | OpenFOAM: The Open Source CFD Toolbox
   \\    /   O peration     | Website:  https://openfoam.org
    \\  /    A nd           | Version:  8
     \\/     M anipulation  |
\*---------------------------------------------------------------------------*/
FoamFile
{
    version     2.0;
    format      ascii;
    class       volScalarField;
    location    "2.6";
    object      p;
}
// * * * * * * * * * * * * * * * * * * * * * * * * * * * * * * * * * * * * * //

dimensions      [0 2 -2 0 0 0 0];

internalField   nonuniform List<scalar> 
180000
(
0.000909651
0.00084813
0.000887187
0.000755195
0.0008253
0.000895133
0.000833846
0.000872618
0.000741961
0.000810903
0.000894421
0.000833167
0.000871906
0.000741366
0.00081023
0.000890307
0.000829211
0.000867775
0.000737878
0.000806352
0.00088987
0.000828795
0.000867335
0.000737514
0.000805937
0.000888098
0.000827102
0.00086555
0.000736028
0.000804264
0.000887875
0.00082689
0.000865324
0.000735841
0.000804051
0.000887112
0.000826162
0.000864554
0.000735201
0.000803329
0.000887022
0.000826077
0.000864463
0.000735126
0.000803242
0.000886809
0.000825874
0.000864248
0.000734947
0.00080304
0.000886809
0.000825874
0.000864248
0.000734947
0.00080304
0.000887022
0.000826077
0.000864463
0.000735126
0.000803242
0.000887112
0.000826162
0.000864554
0.000735201
0.000803329
0.000887875
0.00082689
0.000865324
0.000735841
0.000804051
0.000888098
0.000827102
0.00086555
0.000736028
0.000804264
0.00088987
0.000828795
0.000867335
0.000737514
0.000805937
0.000890307
0.000829211
0.000867775
0.000737878
0.000806352
0.000894421
0.000833167
0.000871906
0.000741366
0.00081023
0.000895133
0.000833846
0.000872618
0.000741961
0.000810903
0.000909651
0.00084813
0.000887187
0.000755195
0.0008253
0.000738573
0.00071064
0.000729314
0.000660421
0.000699758
0.000732379
0.000703638
0.000722758
0.000652736
0.000692363
0.000732069
0.000703299
0.000722431
0.000652385
0.000692012
0.000730234
0.000701283
0.000720492
0.00065029
0.000689943
0.00073004
0.000701071
0.000720285
0.000650072
0.000689722
0.000729242
0.000700202
0.00071944
0.000649175
0.000688824
0.000729142
0.000700094
0.000719334
0.000649063
0.00068871
0.000728797
0.000699719
0.000718968
0.000648676
0.000688321
0.000728757
0.000699675
0.000718924
0.00064863
0.000688274
0.00072866
0.00069957
0.000718822
0.000648522
0.000688165
0.00072866
0.00069957
0.000718822
0.000648522
0.000688165
0.000728757
0.000699675
0.000718924
0.00064863
0.000688274
0.000728797
0.000699719
0.000718968
0.000648676
0.000688321
0.000729142
0.000700094
0.000719334
0.000649063
0.00068871
0.000729242
0.000700202
0.00071944
0.000649175
0.000688824
0.00073004
0.000701071
0.000720285
0.000650072
0.000689722
0.000730234
0.000701283
0.000720492
0.00065029
0.000689943
0.000732069
0.000703299
0.000722431
0.000652385
0.000692012
0.000732379
0.000703638
0.000722758
0.000652736
0.000692363
0.000738573
0.00071064
0.000729314
0.000660421
0.000699758
0.000530512
0.000508163
0.000523546
0.000469436
0.000502661
0.000525494
0.000502776
0.000518348
0.000463833
0.000497043
0.000525244
0.000502516
0.000518089
0.000463576
0.000496775
0.000523728
0.00050093
0.00051652
0.000462007
0.000495162
0.00052357
0.000500765
0.000516355
0.000461845
0.000494992
0.000522913
0.000500083
0.000515672
0.000461173
0.000494292
0.000522831
0.000499998
0.000515587
0.00046109
0.000494204
0.000522547
0.000499704
0.000515291
0.0004608
0.0004939
0.000522514
0.00049967
0.000515256
0.000460766
0.000493865
0.000522435
0.000499587
0.000515174
0.000460685
0.00049378
0.000522435
0.000499587
0.000515174
0.000460685
0.00049378
0.000522514
0.00049967
0.000515256
0.000460766
0.000493865
0.000522547
0.000499704
0.000515291
0.0004608
0.0004939
0.000522831
0.000499998
0.000515587
0.00046109
0.000494204
0.000522913
0.000500083
0.000515672
0.000461173
0.000494292
0.00052357
0.000500765
0.000516355
0.000461845
0.000494992
0.000523728
0.00050093
0.00051652
0.000462007
0.000495162
0.000525244
0.000502516
0.000518089
0.000463576
0.000496775
0.000525494
0.000502776
0.000518348
0.000463833
0.000497043
0.000530512
0.000508163
0.000523546
0.000469436
0.000502661
0.000496646
0.000470308
0.000488523
0.000427267
0.000467044
0.000490607
0.000464191
0.000482407
0.000421353
0.000460796
0.000490305
0.000463894
0.000482101
0.00042108
0.000460496
0.000488478
0.000462083
0.000480249
0.000419403
0.000458682
0.000488288
0.000461896
0.000480055
0.000419232
0.000458491
0.000487498
0.000461117
0.000479251
0.000418514
0.000457706
0.0004874
0.000461021
0.00047915
0.000418426
0.000457607
0.000487059
0.000460686
0.000478803
0.000418116
0.000457267
0.000487019
0.000460647
0.000478762
0.000418081
0.000457227
0.000486924
0.000460554
0.000478665
0.000417994
0.000457132
0.000486924
0.000460554
0.000478665
0.000417994
0.000457132
0.000487019
0.000460647
0.000478762
0.000418081
0.000457227
0.000487059
0.000460686
0.000478803
0.000418116
0.000457267
0.0004874
0.000461021
0.00047915
0.000418426
0.000457607
0.000487498
0.000461117
0.000479251
0.000418514
0.000457706
0.000488288
0.000461896
0.000480055
0.000419232
0.000458491
0.000488478
0.000462083
0.000480249
0.000419403
0.000458682
0.000490305
0.000463894
0.000482101
0.00042108
0.000460496
0.000490607
0.000464191
0.000482407
0.000421353
0.000460796
0.000496645
0.000470308
0.000488523
0.000427267
0.000467044
0.000519848
0.000492008
0.000511612
0.000446162
0.000491582
0.000513488
0.000485562
0.000505168
0.000439939
0.000485021
0.000513166
0.000485246
0.000504843
0.000439649
0.000484701
0.000511213
0.000483308
0.000502862
0.000437856
0.000482759
0.00051101
0.000483108
0.000502655
0.000437673
0.000482555
0.000510164
0.000482275
0.000501794
0.000436905
0.000481714
0.000510059
0.000482172
0.000501687
0.00043681
0.000481608
0.000509694
0.000481813
0.000501315
0.00043648
0.000481244
0.000509652
0.000481772
0.000501271
0.000436441
0.000481201
0.00050955
0.000481671
0.000501167
0.000436349
0.000481099
0.00050955
0.000481671
0.000501167
0.000436349
0.000481099
0.000509652
0.000481772
0.000501271
0.000436441
0.000481201
0.000509694
0.000481813
0.000501315
0.00043648
0.000481244
0.000510059
0.000482172
0.000501687
0.00043681
0.000481608
0.000510164
0.000482275
0.000501794
0.000436905
0.000481714
0.00051101
0.000483108
0.000502655
0.000437673
0.000482555
0.000511213
0.000483308
0.000502862
0.000437856
0.000482759
0.000513166
0.000485246
0.000504843
0.000439649
0.000484701
0.000513488
0.000485562
0.000505168
0.000439939
0.000485021
0.000519848
0.000492008
0.000511612
0.000446162
0.000491582
0.000532537
0.000505306
0.000524972
0.000459667
0.000508691
0.000526369
0.000499006
0.000518706
0.000453522
0.00050228
0.000526053
0.000498694
0.000518387
0.000453233
0.000501963
0.000524119
0.00049676
0.000516419
0.000451426
0.000500017
0.000523918
0.000496562
0.000516214
0.000451242
0.000499814
0.000523079
0.000495729
0.000515358
0.000450468
0.00049897
0.000522976
0.000495627
0.000515252
0.000450373
0.000498864
0.000522613
0.000495268
0.000514882
0.000450038
0.000498499
0.000522572
0.000495227
0.000514839
0.00045
0.000498456
0.00052247
0.000495127
0.000514735
0.000449906
0.000498353
0.00052247
0.000495127
0.000514735
0.000449906
0.000498353
0.000522572
0.000495227
0.000514839
0.00045
0.000498456
0.000522613
0.000495268
0.000514882
0.000450038
0.000498499
0.000522976
0.000495627
0.000515252
0.000450373
0.000498864
0.000523079
0.000495729
0.000515358
0.000450468
0.00049897
0.000523918
0.000496562
0.000516214
0.000451242
0.000499814
0.000524119
0.00049676
0.000516419
0.000451426
0.000500017
0.000526053
0.000498694
0.000518387
0.000453233
0.000501963
0.000526369
0.000499006
0.000518706
0.000453522
0.00050228
0.000532537
0.000505306
0.000524972
0.000459667
0.000508691
0.000532345
0.000505877
0.000525483
0.000461092
0.000513401
0.000526391
0.000499785
0.000519434
0.00045513
0.000507211
0.000526084
0.00049948
0.000519122
0.000454847
0.000506899
0.000524178
0.000497572
0.000517183
0.000453056
0.000504972
0.000523982
0.000497377
0.000516982
0.000452875
0.000504772
0.000523154
0.000496554
0.000516138
0.000452106
0.000503934
0.000523053
0.000496454
0.000516033
0.000452012
0.00050383
0.000522695
0.000496099
0.000515668
0.00045168
0.000503467
0.000522654
0.000496058
0.000515626
0.000451642
0.000503425
0.000522554
0.000495959
0.000515523
0.000451549
0.000503323
0.000522554
0.000495959
0.000515523
0.000451549
0.000503323
0.000522654
0.000496058
0.000515626
0.000451642
0.000503425
0.000522695
0.000496099
0.000515668
0.00045168
0.000503467
0.000523053
0.000496454
0.000516033
0.000452012
0.00050383
0.000523154
0.000496554
0.000516138
0.000452106
0.000503934
0.000523982
0.000497377
0.000516982
0.000452875
0.000504772
0.000524178
0.000497572
0.000517183
0.000453056
0.000504972
0.000526084
0.00049948
0.000519122
0.000454847
0.000506899
0.000526391
0.000499785
0.000519434
0.00045513
0.000507211
0.000532345
0.000505877
0.000525483
0.000461092
0.000513401
0.000529648
0.000503595
0.000523344
0.000459383
0.00051504
0.00052382
0.000497641
0.000517428
0.000453563
0.000509001
0.000523517
0.00049734
0.000517121
0.000453284
0.000508693
0.000521617
0.00049544
0.00051519
0.0004515
0.000506768
0.000521422
0.000495247
0.00051499
0.00045132
0.000506569
0.000520596
0.000494427
0.000514148
0.000450554
0.000505732
0.000520495
0.000494327
0.000514044
0.000450461
0.000505628
0.000520138
0.000493973
0.000513679
0.00045013
0.000505265
0.000520097
0.000493933
0.000513637
0.000450092
0.000505223
0.000519997
0.000493834
0.000513535
0.000449999
0.000505121
0.000519997
0.000493834
0.000513535
0.000449999
0.000505121
0.000520097
0.000493933
0.000513637
0.000450092
0.000505223
0.000520138
0.000493973
0.000513679
0.00045013
0.000505265
0.000520495
0.000494327
0.000514044
0.000450461
0.000505628
0.000520596
0.000494427
0.000514148
0.000450554
0.000505732
0.000521422
0.000495247
0.00051499
0.00045132
0.000506569
0.000521617
0.00049544
0.00051519
0.0004515
0.000506768
0.000523517
0.00049734
0.000517121
0.000453284
0.000508693
0.00052382
0.000497641
0.000517428
0.000453563
0.000509001
0.000529648
0.000503595
0.000523344
0.000459383
0.00051504
0.000528356
0.000502571
0.000522546
0.000458782
0.000517431
0.00052262
0.00049672
0.000516729
0.00045307
0.000511501
0.000522319
0.000496423
0.000516425
0.000452793
0.000511195
0.000520417
0.000494522
0.000514492
0.00045101
0.000509265
0.000520222
0.00049433
0.000514293
0.000450831
0.000509066
0.000519394
0.000493508
0.000513448
0.000450063
0.000508225
0.000519293
0.000493409
0.000513345
0.00044997
0.000508121
0.000518935
0.000493054
0.000512979
0.000449638
0.000507757
0.000518894
0.000493014
0.000512937
0.0004496
0.000507715
0.000518794
0.000492914
0.000512835
0.000449507
0.000507612
0.000518794
0.000492914
0.000512835
0.000449507
0.000507612
0.000518894
0.000493014
0.000512937
0.0004496
0.000507715
0.000518935
0.000493054
0.000512979
0.000449638
0.000507757
0.000519293
0.000493409
0.000513345
0.00044997
0.000508121
0.000519394
0.000493508
0.000513448
0.000450063
0.000508225
0.000520222
0.00049433
0.000514293
0.000450831
0.000509066
0.000520417
0.000494522
0.000514492
0.00045101
0.000509265
0.000522319
0.000496423
0.000516425
0.000452793
0.000511195
0.00052262
0.00049672
0.000516729
0.00045307
0.000511501
0.000528356
0.000502571
0.000522546
0.000458782
0.000517431
0.000527999
0.000502489
0.000522674
0.000459179
0.000520108
0.000522358
0.00049674
0.000516958
0.000453567
0.000514274
0.00052206
0.000496445
0.000516656
0.000453293
0.00051397
0.000520156
0.000494545
0.000514723
0.000451508
0.000512035
0.000519962
0.000494353
0.000514525
0.000451329
0.000511836
0.000519132
0.00049353
0.000513679
0.00045056
0.000510992
0.000519032
0.000493431
0.000513576
0.000450467
0.000510888
0.000518673
0.000493076
0.000513209
0.000450134
0.000510522
0.000518632
0.000493036
0.000513167
0.000450097
0.00051048
0.000518531
0.000492936
0.000513064
0.000450003
0.000510377
0.000518531
0.000492936
0.000513064
0.000450003
0.000510377
0.000518632
0.000493036
0.000513167
0.000450097
0.00051048
0.000518673
0.000493076
0.000513209
0.000450134
0.000510522
0.000519032
0.000493431
0.000513576
0.000450467
0.000510888
0.000519132
0.00049353
0.000513679
0.00045056
0.000510992
0.000519962
0.000494353
0.000514525
0.000451329
0.000511836
0.000520156
0.000494545
0.000514723
0.000451508
0.000512035
0.00052206
0.000496445
0.000516656
0.000453293
0.00051397
0.000522358
0.00049674
0.000516958
0.000453567
0.000514274
0.000527999
0.000502489
0.000522674
0.000459179
0.000520108
0.000527733
0.000502517
0.000522887
0.000459774
0.000521927
0.000522193
0.000496874
0.000517276
0.000454265
0.000516178
0.000521897
0.000496582
0.000516977
0.000453993
0.000515875
0.000519995
0.000494684
0.000515046
0.000452208
0.000513935
0.000519802
0.000494493
0.000514849
0.00045203
0.000513737
0.000518971
0.00049367
0.000514003
0.000451259
0.000512889
0.000518871
0.000493571
0.0005139
0.000451166
0.000512785
0.000518511
0.000493215
0.000513533
0.000450833
0.000512417
0.000518471
0.000493175
0.000513491
0.000450795
0.000512375
0.00051837
0.000493076
0.000513388
0.000450702
0.000512272
0.00051837
0.000493076
0.000513388
0.000450702
0.000512272
0.000518471
0.000493175
0.000513491
0.000450795
0.000512375
0.000518511
0.000493215
0.000513533
0.000450833
0.000512417
0.000518871
0.000493571
0.0005139
0.000451166
0.000512785
0.000518971
0.00049367
0.000514003
0.000451259
0.000512889
0.000519802
0.000494493
0.000514849
0.00045203
0.000513737
0.000519995
0.000494684
0.000515046
0.000452208
0.000513935
0.000521897
0.000496582
0.000516977
0.000453993
0.000515875
0.000522193
0.000496874
0.000517276
0.000454265
0.000516178
0.000527733
0.000502517
0.000522887
0.000459774
0.000521927
0.000527352
0.000502426
0.000522969
0.000460265
0.000520666
0.000521911
0.000496889
0.000517462
0.000454857
0.000515015
0.000521618
0.0004966
0.000517166
0.000454588
0.000514716
0.000519719
0.000494705
0.000515238
0.000452804
0.000512779
0.000519527
0.000494515
0.000515042
0.000452627
0.000512582
0.000518696
0.000493691
0.000514196
0.000451855
0.000511733
0.000518596
0.000493593
0.000514093
0.000451762
0.00051163
0.000518236
0.000493237
0.000513726
0.000451428
0.000511262
0.000518195
0.000493197
0.000513684
0.000451391
0.00051122
0.000518094
0.000493097
0.000513581
0.000451297
0.000511116
0.000518094
0.000493097
0.000513581
0.000451297
0.000511116
0.000518195
0.000493197
0.000513684
0.000451391
0.00051122
0.000518236
0.000493237
0.000513726
0.000451428
0.000511262
0.000518596
0.000493593
0.000514093
0.000451762
0.00051163
0.000518696
0.000493691
0.000514196
0.000451855
0.000511733
0.000519527
0.000494515
0.000515042
0.000452627
0.000512582
0.000519719
0.000494705
0.000515238
0.000452804
0.000512779
0.000521618
0.0004966
0.000517166
0.000454588
0.000514716
0.000521911
0.000496889
0.000517462
0.000454857
0.000515015
0.000527352
0.000502426
0.000522969
0.000460265
0.000520666
0.000526933
0.000502284
0.000522992
0.000460626
0.000518528
0.000521588
0.000496849
0.000517587
0.000455318
0.00051298
0.000521298
0.000496562
0.000517294
0.000455051
0.000512684
0.000519402
0.000494671
0.00051537
0.000453269
0.000510753
0.00051921
0.000494482
0.000515175
0.000453092
0.000510557
0.000518379
0.000493658
0.000514328
0.000452319
0.00050971
0.000518279
0.00049356
0.000514226
0.000452227
0.000509607
0.000517919
0.000493204
0.000513858
0.000451892
0.000509239
0.000517879
0.000493164
0.000513817
0.000451855
0.000509197
0.000517777
0.000493065
0.000513713
0.000451761
0.000509094
0.000517777
0.000493065
0.000513713
0.000451761
0.000509094
0.000517879
0.000493164
0.000513817
0.000451855
0.000509197
0.000517919
0.000493204
0.000513858
0.000451892
0.000509239
0.000518279
0.00049356
0.000514226
0.000452227
0.000509607
0.000518379
0.000493658
0.000514328
0.000452319
0.00050971
0.000519211
0.000494482
0.000515175
0.000453092
0.000510557
0.000519402
0.000494671
0.00051537
0.000453269
0.000510753
0.000521298
0.000496562
0.000517294
0.000455051
0.000512684
0.000521588
0.000496849
0.000517587
0.000455318
0.00051298
0.000526933
0.000502284
0.000522992
0.000460626
0.000518528
0.000526537
0.000502153
0.000523022
0.000460904
0.000516653
0.000521287
0.000496818
0.000517716
0.000455694
0.000511203
0.000520999
0.000496534
0.000517426
0.000455429
0.000510911
0.000519105
0.000494646
0.000515504
0.000453649
0.000508986
0.000518915
0.000494458
0.00051531
0.000453473
0.000508791
0.000518083
0.000493634
0.000514463
0.000452699
0.000507944
0.000517984
0.000493537
0.000514362
0.000452607
0.000507842
0.000517623
0.00049318
0.000513994
0.000452272
0.000507474
0.000517583
0.000493141
0.000513952
0.000452235
0.000507432
0.000517482
0.000493041
0.000513849
0.000452141
0.000507329
0.000517482
0.000493041
0.000513849
0.000452141
0.000507329
0.000517583
0.000493141
0.000513952
0.000452235
0.000507432
0.000517623
0.00049318
0.000513994
0.000452272
0.000507474
0.000517984
0.000493537
0.000514362
0.000452607
0.000507842
0.000518083
0.000493634
0.000514463
0.000452699
0.000507944
0.000518915
0.000494458
0.00051531
0.000453473
0.000508791
0.000519105
0.000494646
0.000515504
0.000453649
0.000508986
0.000520999
0.000496534
0.000517426
0.000455429
0.000510911
0.000521287
0.000496818
0.000517716
0.000455694
0.000511203
0.000526537
0.000502153
0.000523022
0.000460904
0.000516653
0.000526172
0.000502044
0.000523068
0.00046112
0.000515041
0.000521014
0.000496806
0.000517859
0.000456007
0.000509687
0.000520729
0.000496525
0.000517571
0.000455745
0.000509397
0.000518838
0.000494641
0.000515654
0.000453967
0.000507479
0.000518649
0.000494454
0.000515461
0.000453792
0.000507285
0.000517816
0.00049363
0.000514613
0.000453018
0.000506439
0.000517718
0.000493533
0.000514512
0.000452926
0.000506337
0.000517356
0.000493176
0.000514144
0.000452591
0.000505969
0.000517316
0.000493137
0.000514103
0.000452553
0.000505927
0.000517215
0.000493037
0.000513999
0.000452459
0.000505824
0.000517215
0.000493037
0.000513999
0.000452459
0.000505824
0.000517316
0.000493137
0.000514103
0.000452553
0.000505927
0.000517356
0.000493176
0.000514144
0.000452591
0.000505969
0.000517718
0.000493533
0.000514512
0.000452926
0.000506337
0.000517816
0.00049363
0.000514613
0.000453018
0.000506439
0.000518649
0.000494454
0.000515461
0.000453792
0.000507285
0.000518838
0.000494641
0.000515654
0.000453967
0.000507479
0.000520729
0.000496525
0.000517571
0.000455745
0.000509397
0.000521014
0.000496806
0.000517859
0.000456007
0.000509687
0.000526172
0.000502044
0.000523068
0.00046112
0.000515041
0.000525829
0.000501949
0.000523124
0.000461277
0.000513492
0.000520761
0.000496806
0.000518009
0.000456258
0.000508232
0.000520479
0.000496528
0.000517724
0.000455998
0.000507945
0.000518592
0.000494647
0.000515811
0.000454224
0.000506033
0.000518403
0.000494462
0.000515619
0.000454049
0.00050584
0.00051757
0.000493638
0.000514771
0.000453275
0.000504995
0.000517472
0.000493541
0.000514671
0.000453184
0.000504893
0.000517111
0.000493184
0.000514302
0.000452848
0.000504525
0.000517071
0.000493145
0.000514261
0.000452811
0.000504484
0.000516969
0.000493045
0.000514158
0.000452717
0.000504381
0.000516969
0.000493045
0.000514158
0.000452717
0.000504381
0.000517071
0.000493145
0.000514261
0.000452811
0.000504484
0.000517111
0.000493184
0.000514302
0.000452848
0.000504525
0.000517472
0.000493541
0.000514671
0.000453184
0.000504893
0.00051757
0.000493638
0.000514771
0.000453275
0.000504995
0.000518403
0.000494462
0.000515619
0.000454049
0.00050584
0.000518592
0.000494647
0.000515811
0.000454224
0.000506033
0.000520479
0.000496528
0.000517724
0.000455998
0.000507945
0.000520761
0.000496806
0.000518009
0.000456258
0.000508232
0.000525829
0.000501949
0.000523124
0.000461277
0.000513492
0.000525504
0.000501863
0.000523187
0.00046137
0.000511938
0.000520524
0.000496813
0.000518164
0.000456444
0.000506768
0.000520245
0.000496538
0.000517882
0.000456187
0.000506485
0.000518361
0.000494662
0.000515973
0.000454416
0.000504579
0.000518174
0.000494477
0.000515782
0.000454243
0.000504387
0.000517341
0.000493653
0.000514934
0.000453468
0.000503542
0.000517243
0.000493557
0.000514834
0.000453377
0.000503442
0.000516881
0.0004932
0.000514465
0.000453041
0.000503074
0.000516841
0.000493161
0.000514424
0.000453004
0.000503033
0.00051674
0.00049306
0.000514321
0.00045291
0.000502929
0.00051674
0.00049306
0.000514321
0.00045291
0.000502929
0.000516841
0.000493161
0.000514424
0.000453004
0.000503033
0.000516881
0.0004932
0.000514465
0.000453041
0.000503074
0.000517243
0.000493557
0.000514834
0.000453377
0.000503442
0.000517341
0.000493653
0.000514934
0.000453468
0.000503542
0.000518174
0.000494477
0.000515782
0.000454243
0.000504387
0.000518361
0.000494662
0.000515973
0.000454416
0.000504579
0.000520245
0.000496538
0.000517882
0.000456187
0.000506485
0.000520524
0.000496813
0.000518164
0.000456444
0.000506768
0.000525504
0.000501863
0.000523187
0.00046137
0.000511938
0.000525196
0.000501787
0.000523257
0.000461399
0.000510389
0.000520303
0.000496827
0.000518325
0.000456565
0.000505308
0.000520026
0.000496555
0.000518045
0.000456311
0.000505027
0.000518146
0.000494683
0.000516141
0.000454545
0.000503128
0.00051796
0.0004945
0.000515951
0.000454372
0.000502938
0.000517127
0.000493676
0.000515103
0.000453598
0.000502094
0.000517029
0.00049358
0.000515003
0.000453507
0.000501993
0.000516667
0.000493223
0.000514634
0.000453171
0.000501626
0.000516628
0.000493184
0.000514594
0.000453134
0.000501585
0.000516526
0.000493083
0.00051449
0.00045304
0.000501482
0.000516526
0.000493083
0.00051449
0.00045304
0.000501482
0.000516628
0.000493184
0.000514594
0.000453134
0.000501585
0.000516667
0.000493223
0.000514634
0.000453171
0.000501626
0.000517029
0.00049358
0.000515003
0.000453507
0.000501993
0.000517127
0.000493676
0.000515103
0.000453598
0.000502094
0.00051796
0.0004945
0.000515951
0.000454372
0.000502938
0.000518146
0.000494683
0.000516141
0.000454545
0.000503128
0.000520026
0.000496555
0.000518045
0.000456311
0.000505027
0.000520303
0.000496827
0.000518325
0.000456565
0.000505308
0.000525196
0.000501787
0.000523257
0.000461399
0.000510389
0.000524906
0.00050172
0.000523336
0.000461367
0.000508859
0.000520097
0.00049685
0.000518493
0.000456623
0.000503864
0.000519822
0.000496579
0.000518216
0.000456371
0.000503586
0.000517947
0.000494713
0.000516316
0.00045461
0.000501694
0.000517762
0.00049453
0.000516127
0.000454439
0.000501505
0.000516928
0.000493707
0.00051528
0.000453664
0.000500662
0.000516831
0.000493611
0.00051518
0.000453574
0.000500562
0.000516469
0.000493254
0.000514811
0.000453238
0.000500194
0.00051643
0.000493215
0.000514771
0.000453201
0.000500154
0.000516328
0.000493115
0.000514667
0.000453107
0.00050005
0.000516328
0.000493115
0.000514667
0.000453107
0.00050005
0.00051643
0.000493215
0.000514771
0.000453201
0.000500154
0.000516469
0.000493254
0.000514811
0.000453238
0.000500194
0.000516831
0.000493611
0.00051518
0.000453574
0.000500562
0.000516928
0.000493707
0.00051528
0.000453664
0.000500662
0.000517762
0.00049453
0.000516127
0.000454439
0.000501505
0.000517947
0.000494713
0.000516316
0.00045461
0.000501694
0.000519822
0.000496579
0.000518216
0.000456371
0.000503586
0.000520097
0.00049685
0.000518493
0.000456623
0.000503864
0.000524906
0.00050172
0.000523336
0.000461367
0.000508859
0.000524633
0.000501664
0.000523426
0.000461274
0.000507281
0.000519906
0.00049688
0.00051867
0.000456619
0.000502371
0.000519634
0.000496612
0.000518395
0.000456369
0.000502096
0.000517764
0.000494751
0.000516501
0.000454613
0.000500212
0.000517579
0.000494569
0.000516313
0.000454443
0.000500024
0.000516746
0.000493746
0.000515466
0.000453669
0.000499182
0.000516649
0.000493651
0.000515367
0.00045358
0.000499083
0.000516287
0.000493293
0.000514997
0.000453243
0.000498715
0.000516248
0.000493255
0.000514957
0.000453207
0.000498675
0.000516146
0.000493154
0.000514853
0.000453112
0.000498571
0.000516146
0.000493154
0.000514853
0.000453112
0.000498571
0.000516248
0.000493255
0.000514957
0.000453207
0.000498675
0.000516287
0.000493293
0.000514997
0.000453243
0.000498715
0.000516649
0.000493651
0.000515367
0.00045358
0.000499083
0.000516746
0.000493746
0.000515466
0.000453669
0.000499182
0.000517579
0.000494569
0.000516313
0.000454443
0.000500024
0.000517764
0.000494751
0.000516501
0.000454613
0.000500212
0.000519634
0.000496612
0.000518395
0.000456369
0.000502096
0.000519906
0.00049688
0.00051867
0.000456619
0.000502371
0.000524633
0.000501664
0.000523426
0.000461274
0.000507281
-1.64757e-05
1.59483e-05
2.94268e-06
7.22433e-07
2.58329e-07
1.82251e-07
1.65745e-07
1.62603e-07
1.61839e-07
1.61671e-07
1.61618e-07
1.61594e-07
1.61496e-07
1.61386e-07
1.60519e-07
1.59851e-07
1.53415e-07
1.50645e-07
1.11916e-07
1.07812e-07
-1.65533e-05
1.59126e-05
2.96112e-06
7.28487e-07
2.5984e-07
1.8262e-07
1.65816e-07
1.62607e-07
1.61824e-07
1.61651e-07
1.61596e-07
1.61572e-07
1.61471e-07
1.61359e-07
1.60478e-07
1.59803e-07
1.53295e-07
1.50518e-07
1.11616e-07
1.076e-07
-1.65483e-05
1.59039e-05
2.95856e-06
7.28165e-07
2.59784e-07
1.82615e-07
1.65816e-07
1.62607e-07
1.61824e-07
1.61651e-07
1.61596e-07
1.61572e-07
1.61471e-07
1.61359e-07
1.60477e-07
1.59802e-07
1.53293e-07
1.50516e-07
1.11613e-07
1.07598e-07
-1.65228e-05
1.58548e-05
2.94385e-06
7.26248e-07
2.59447e-07
1.82578e-07
1.65809e-07
1.62606e-07
1.61823e-07
1.6165e-07
1.61595e-07
1.6157e-07
1.6147e-07
1.61357e-07
1.60475e-07
1.59799e-07
1.53286e-07
1.50509e-07
1.11601e-07
1.07592e-07
-1.65191e-05
1.58487e-05
2.94177e-06
7.25922e-07
2.59377e-07
1.82566e-07
1.65807e-07
1.62605e-07
1.61823e-07
1.6165e-07
1.61595e-07
1.6157e-07
1.6147e-07
1.61357e-07
1.60475e-07
1.59799e-07
1.53286e-07
1.50509e-07
1.11601e-07
1.07591e-07
-1.65055e-05
1.58264e-05
2.93435e-06
7.24817e-07
2.59147e-07
1.8253e-07
1.65799e-07
1.62604e-07
1.61823e-07
1.6165e-07
1.61595e-07
1.6157e-07
1.61469e-07
1.61357e-07
1.60474e-07
1.59798e-07
1.53286e-07
1.50509e-07
1.11601e-07
1.07591e-07
-1.65036e-05
1.58233e-05
2.9333e-06
7.24648e-07
2.5911e-07
1.82524e-07
1.65797e-07
1.62603e-07
1.61823e-07
1.6165e-07
1.61595e-07
1.6157e-07
1.61469e-07
1.61357e-07
1.60474e-07
1.59798e-07
1.53286e-07
1.50509e-07
1.11601e-07
1.07591e-07
-1.64978e-05
1.58138e-05
2.93017e-06
7.2418e-07
2.59011e-07
1.82508e-07
1.65794e-07
1.62603e-07
1.61822e-07
1.6165e-07
1.61595e-07
1.6157e-07
1.61469e-07
1.61357e-07
1.60474e-07
1.59798e-07
1.53286e-07
1.50509e-07
1.11601e-07
1.07591e-07
-1.6497e-05
1.58126e-05
2.92975e-06
7.24114e-07
2.58997e-07
1.82505e-07
1.65793e-07
1.62603e-07
1.61822e-07
1.6165e-07
1.61595e-07
1.6157e-07
1.61469e-07
1.61357e-07
1.60474e-07
1.59798e-07
1.53286e-07
1.50509e-07
1.11601e-07
1.07591e-07
-1.64954e-05
1.581e-05
2.9289e-06
7.23987e-07
2.5897e-07
1.82501e-07
1.65792e-07
1.62603e-07
1.61822e-07
1.6165e-07
1.61595e-07
1.6157e-07
1.61469e-07
1.61357e-07
1.60474e-07
1.59798e-07
1.53286e-07
1.50509e-07
1.11601e-07
1.07591e-07
-1.64954e-05
1.581e-05
2.9289e-06
7.23987e-07
2.5897e-07
1.82501e-07
1.65792e-07
1.62603e-07
1.61822e-07
1.6165e-07
1.61595e-07
1.6157e-07
1.61469e-07
1.61357e-07
1.60474e-07
1.59798e-07
1.53286e-07
1.50509e-07
1.11601e-07
1.07591e-07
-1.6497e-05
1.58126e-05
2.92975e-06
7.24114e-07
2.58997e-07
1.82505e-07
1.65793e-07
1.62603e-07
1.61822e-07
1.6165e-07
1.61595e-07
1.6157e-07
1.61469e-07
1.61357e-07
1.60474e-07
1.59798e-07
1.53286e-07
1.50509e-07
1.11601e-07
1.07591e-07
-1.64978e-05
1.58138e-05
2.93017e-06
7.2418e-07
2.59011e-07
1.82508e-07
1.65794e-07
1.62603e-07
1.61822e-07
1.6165e-07
1.61595e-07
1.6157e-07
1.61469e-07
1.61357e-07
1.60474e-07
1.59798e-07
1.53286e-07
1.50509e-07
1.11601e-07
1.07591e-07
-1.65036e-05
1.58233e-05
2.9333e-06
7.24648e-07
2.5911e-07
1.82524e-07
1.65797e-07
1.62603e-07
1.61823e-07
1.6165e-07
1.61595e-07
1.6157e-07
1.61469e-07
1.61357e-07
1.60474e-07
1.59798e-07
1.53286e-07
1.50509e-07
1.11601e-07
1.07591e-07
-1.65055e-05
1.58264e-05
2.93435e-06
7.24817e-07
2.59147e-07
1.8253e-07
1.65799e-07
1.62604e-07
1.61823e-07
1.6165e-07
1.61595e-07
1.6157e-07
1.61469e-07
1.61357e-07
1.60474e-07
1.59798e-07
1.53286e-07
1.50509e-07
1.11601e-07
1.07591e-07
-1.65191e-05
1.58487e-05
2.94177e-06
7.25922e-07
2.59377e-07
1.82566e-07
1.65807e-07
1.62605e-07
1.61823e-07
1.6165e-07
1.61595e-07
1.6157e-07
1.6147e-07
1.61357e-07
1.60475e-07
1.59799e-07
1.53286e-07
1.50509e-07
1.11601e-07
1.07591e-07
-1.65228e-05
1.58548e-05
2.94385e-06
7.26248e-07
2.59447e-07
1.82578e-07
1.65809e-07
1.62606e-07
1.61823e-07
1.6165e-07
1.61595e-07
1.6157e-07
1.6147e-07
1.61357e-07
1.60475e-07
1.59799e-07
1.53286e-07
1.50509e-07
1.11601e-07
1.07592e-07
-1.65483e-05
1.59039e-05
2.95856e-06
7.28165e-07
2.59784e-07
1.82615e-07
1.65816e-07
1.62607e-07
1.61824e-07
1.61651e-07
1.61596e-07
1.61572e-07
1.61471e-07
1.61359e-07
1.60477e-07
1.59802e-07
1.53293e-07
1.50516e-07
1.11613e-07
1.07598e-07
-1.65533e-05
1.59126e-05
2.96112e-06
7.28487e-07
2.5984e-07
1.8262e-07
1.65816e-07
1.62607e-07
1.61824e-07
1.61651e-07
1.61596e-07
1.61572e-07
1.61471e-07
1.61359e-07
1.60478e-07
1.59803e-07
1.53295e-07
1.50518e-07
1.11616e-07
1.076e-07
-1.64757e-05
1.59483e-05
2.94268e-06
7.22433e-07
2.58329e-07
1.82251e-07
1.65745e-07
1.62603e-07
1.61839e-07
1.61671e-07
1.61618e-07
1.61594e-07
1.61496e-07
1.61386e-07
1.60519e-07
1.59851e-07
1.53415e-07
1.50645e-07
1.11916e-07
1.07812e-07
-1.60932e-05
1.61208e-05
2.96934e-06
7.28111e-07
2.59358e-07
1.82484e-07
1.65779e-07
1.62692e-07
1.61931e-07
1.6176e-07
1.61706e-07
1.61682e-07
1.61582e-07
1.6147e-07
1.60564e-07
1.59833e-07
1.53333e-07
1.50537e-07
1.11321e-07
1.07188e-07
-1.61656e-05
1.60849e-05
2.98799e-06
7.34233e-07
2.60887e-07
1.82857e-07
1.65853e-07
1.62694e-07
1.61916e-07
1.6174e-07
1.61684e-07
1.6166e-07
1.61558e-07
1.61444e-07
1.60522e-07
1.59784e-07
1.53212e-07
1.50409e-07
1.11017e-07
1.06972e-07
-1.61605e-05
1.60762e-05
2.98541e-06
7.33907e-07
2.60831e-07
1.82852e-07
1.65852e-07
1.62694e-07
1.61916e-07
1.6174e-07
1.61684e-07
1.61659e-07
1.61557e-07
1.61444e-07
1.60521e-07
1.59783e-07
1.5321e-07
1.50407e-07
1.11014e-07
1.0697e-07
-1.61341e-05
1.60266e-05
2.97056e-06
7.31972e-07