/*--------------------------------*- C++ -*----------------------------------*\
  =========                 |
  \\      /  F ield         | OpenFOAM: The Open Source CFD Toolbox
   \\    /   O peration     | Website:  https://openfoam.org
    \\  /    A nd           | Version:  8
     \\/     M anipulation  |
\*---------------------------------------------------------------------------*/
FoamFile
{
    version     2.0;
    format      ascii;
    class       volScalarField;
    location    "2.6";
    object      S1;
}
// * * * * * * * * * * * * * * * * * * * * * * * * * * * * * * * * * * * * * //

dimensions      [0 1 -1 0 0 0 0];

internalField   nonuniform List<scalar> 
180000
(
-1.67671e-27
-4.59712e-23
-1.01173e-18
-1.43453e-14
3.04983e-11
-1.77073e-27
-4.76023e-23
-1.01056e-18
-1.28346e-14
1.02696e-10
-1.774e-27
-4.76725e-23
-1.01145e-18
-1.28264e-14
1.03554e-10
-1.78486e-27
-4.79064e-23
-1.01446e-18
-1.27993e-14
1.06439e-10
-1.78538e-27
-4.79203e-23
-1.0148e-18
-1.28082e-14
1.06175e-10
-1.78675e-27
-4.79595e-23
-1.01585e-18
-1.28369e-14
1.05295e-10
-1.78688e-27
-4.79638e-23
-1.01599e-18
-1.28418e-14
1.05127e-10
-1.7872e-27
-4.79749e-23
-1.01636e-18
-1.28542e-14
1.04706e-10
-1.78724e-27
-4.79763e-23
-1.01641e-18
-1.2856e-14
1.04642e-10
-1.78731e-27
-4.79789e-23
-1.0165e-18
-1.28592e-14
1.04533e-10
-1.78731e-27
-4.79789e-23
-1.0165e-18
-1.28592e-14
1.04533e-10
-1.78724e-27
-4.79763e-23
-1.01641e-18
-1.2856e-14
1.04642e-10
-1.7872e-27
-4.79749e-23
-1.01636e-18
-1.28542e-14
1.04706e-10
-1.78688e-27
-4.79638e-23
-1.01599e-18
-1.28418e-14
1.05127e-10
-1.78675e-27
-4.79595e-23
-1.01585e-18
-1.28369e-14
1.05295e-10
-1.78537e-27
-4.79203e-23
-1.0148e-18
-1.28082e-14
1.06175e-10
-1.78486e-27
-4.79064e-23
-1.01446e-18
-1.27993e-14
1.06439e-10
-1.774e-27
-4.76725e-23
-1.01145e-18
-1.28264e-14
1.03554e-10
-1.77073e-27
-4.76023e-23
-1.01056e-18
-1.28346e-14
1.02696e-10
-1.67671e-27
-4.59712e-23
-1.01173e-18
-1.43453e-14
3.04983e-11
-1.67668e-27
-4.59698e-23
-1.01157e-18
-1.41907e-14
2.97992e-10
-1.7707e-27
-4.76008e-23
-1.01039e-18
-1.26631e-14
4.0206e-10
-1.77398e-27
-4.7671e-23
-1.01128e-18
-1.26548e-14
4.03148e-10
-1.78484e-27
-4.79049e-23
-1.01429e-18
-1.26278e-14
4.06496e-10
-1.78535e-27
-4.79188e-23
-1.01463e-18
-1.26368e-14
4.05994e-10
-1.78673e-27
-4.7958e-23
-1.01568e-18
-1.26662e-14
4.04248e-10
-1.78685e-27
-4.79623e-23
-1.01582e-18
-1.26712e-14
4.03943e-10
-1.78718e-27
-4.79734e-23
-1.01619e-18
-1.26839e-14
4.03126e-10
-1.78722e-27
-4.79748e-23
-1.01624e-18
-1.26858e-14
4.0301e-10
-1.78729e-27
-4.79774e-23
-1.01633e-18
-1.2689e-14
4.02795e-10
-1.78729e-27
-4.79774e-23
-1.01633e-18
-1.2689e-14
4.02795e-10
-1.78722e-27
-4.79748e-23
-1.01624e-18
-1.26858e-14
4.0301e-10
-1.78718e-27
-4.79734e-23
-1.01619e-18
-1.26839e-14
4.03126e-10
-1.78685e-27
-4.79623e-23
-1.01582e-18
-1.26712e-14
4.03943e-10
-1.78673e-27
-4.7958e-23
-1.01568e-18
-1.26662e-14
4.04248e-10
-1.78535e-27
-4.79188e-23
-1.01463e-18
-1.26368e-14
4.05994e-10
-1.78484e-27
-4.79049e-23
-1.01429e-18
-1.26278e-14
4.06496e-10
-1.77398e-27
-4.7671e-23
-1.01128e-18
-1.26548e-14
4.03148e-10
-1.7707e-27
-4.76008e-23
-1.01039e-18
-1.26631e-14
4.0206e-10
-1.67668e-27
-4.59698e-23
-1.01157e-18
-1.41907e-14
2.97992e-10
-1.67666e-27
-4.59663e-23
-1.01012e-18
-1.22241e-14
3.43863e-09
-1.77068e-27
-4.75971e-23
-1.00885e-18
-1.05485e-14
3.79566e-09
-1.77396e-27
-4.76673e-23
-1.00975e-18
-1.05401e-14
3.79807e-09
-1.78482e-27
-4.79012e-23
-1.01276e-18
-1.0516e-14
3.80344e-09
-1.78533e-27
-4.79151e-23
-1.0131e-18
-1.05268e-14
3.80082e-09
-1.7867e-27
-4.79543e-23
-1.01416e-18
-1.05629e-14
3.79127e-09
-1.78683e-27
-4.79586e-23
-1.0143e-18
-1.05689e-14
3.78977e-09
-1.78716e-27
-4.79697e-23
-1.01467e-18
-1.05846e-14
3.78539e-09
-1.78719e-27
-4.79711e-23
-1.01472e-18
-1.05869e-14
3.7848e-09
-1.78727e-27
-4.79737e-23
-1.01481e-18
-1.0591e-14
3.78363e-09
-1.78727e-27
-4.79737e-23
-1.01481e-18
-1.05909e-14
3.78363e-09
-1.78719e-27
-4.79711e-23
-1.01472e-18
-1.05869e-14
3.7848e-09
-1.78716e-27
-4.79697e-23
-1.01467e-18
-1.05846e-14
3.78539e-09
-1.78683e-27
-4.79586e-23
-1.0143e-18
-1.05689e-14
3.78977e-09
-1.7867e-27
-4.79543e-23
-1.01416e-18
-1.05629e-14
3.79127e-09
-1.78533e-27
-4.79151e-23
-1.0131e-18
-1.05268e-14
3.80082e-09
-1.78482e-27
-4.79012e-23
-1.01276e-18
-1.0516e-14
3.80344e-09
-1.77396e-27
-4.76673e-23
-1.00975e-18
-1.05401e-14
3.79807e-09
-1.77068e-27
-4.75971e-23
-1.00885e-18
-1.05485e-14
3.79566e-09
-1.67666e-27
-4.59663e-23
-1.01012e-18
-1.22241e-14
3.43863e-09
-1.67663e-27
-4.59558e-23
-1.00191e-18
-1.54549e-15
1.85184e-08
-1.77065e-27
-4.75862e-23
-1.00028e-18
6.80679e-16
1.96959e-08
-1.77393e-27
-4.76564e-23
-1.00118e-18
6.87902e-16
1.97013e-08
-1.78479e-27
-4.78903e-23
-1.00423e-18
6.91978e-16
1.97092e-08
-1.7853e-27
-4.79042e-23
-1.00458e-18
6.7316e-16
1.9699e-08
-1.78668e-27
-4.79434e-23
-1.00567e-18
6.06384e-16
1.96615e-08
-1.7868e-27
-4.79478e-23
-1.00582e-18
5.96e-16
1.96557e-08
-1.78713e-27
-4.79589e-23
-1.0062e-18
5.66526e-16
1.96385e-08
-1.78717e-27
-4.79603e-23
-1.00626e-18
5.62521e-16
1.96363e-08
-1.78724e-27
-4.79629e-23
-1.00635e-18
5.54696e-16
1.96316e-08
-1.78724e-27
-4.79629e-23
-1.00635e-18
5.54697e-16
1.96316e-08
-1.78717e-27
-4.79603e-23
-1.00626e-18
5.62521e-16
1.96363e-08
-1.78713e-27
-4.79589e-23
-1.0062e-18
5.66526e-16
1.96385e-08
-1.7868e-27
-4.79478e-23
-1.00582e-18
5.96e-16
1.96557e-08
-1.78668e-27
-4.79434e-23
-1.00567e-18
6.06383e-16
1.96615e-08
-1.7853e-27
-4.79042e-23
-1.00458e-18
6.73161e-16
1.9699e-08
-1.78479e-27
-4.78903e-23
-1.00423e-18
6.91978e-16
1.97092e-08
-1.77393e-27
-4.76564e-23
-1.00118e-18
6.87903e-16
1.97013e-08
-1.77065e-27
-4.75862e-23
-1.00028e-18
6.80681e-16
1.96959e-08
-1.67663e-27
-4.59558e-23
-1.00191e-18
-1.54549e-15
1.85184e-08
-1.67659e-27
-4.5925e-23
-9.71819e-19
3.31717e-14
6.00712e-08
-1.7706e-27
-4.75546e-23
-9.69283e-19
3.65949e-14
6.2703e-08
-1.77388e-27
-4.76249e-23
-9.70206e-19
3.65937e-14
6.27101e-08
-1.78474e-27
-4.78589e-23
-9.73399e-19
3.65233e-14
6.27111e-08
-1.78525e-27
-4.78729e-23
-9.73784e-19
3.64823e-14
6.26852e-08
-1.78663e-27
-4.79122e-23
-9.74981e-19
3.63307e-14
6.25907e-08
-1.78676e-27
-4.79165e-23
-9.75145e-19
3.63082e-14
6.25761e-08
-1.78708e-27
-4.79277e-23
-9.7558e-19
3.62406e-14
6.25324e-08
-1.78712e-27
-4.79291e-23
-9.7564e-19
3.62318e-14
6.25266e-08
-1.78719e-27
-4.79317e-23
-9.75748e-19
3.62135e-14
6.25146e-08
-1.78719e-27
-4.79317e-23
-9.75748e-19
3.62135e-14
6.25146e-08
-1.78712e-27
-4.79291e-23
-9.7564e-19
3.62318e-14
6.25266e-08
-1.78708e-27
-4.79277e-23
-9.7558e-19
3.62406e-14
6.25324e-08
-1.78676e-27
-4.79165e-23
-9.75145e-19
3.63082e-14
6.25761e-08
-1.78663e-27
-4.79122e-23
-9.74981e-19
3.63307e-14
6.25907e-08
-1.78525e-27
-4.78728e-23
-9.73783e-19
3.64823e-14
6.26852e-08
-1.78474e-27
-4.78589e-23
-9.73399e-19
3.65233e-14
6.27111e-08
-1.77388e-27
-4.76249e-23
-9.70206e-19
3.65937e-14
6.27101e-08
-1.7706e-27
-4.75546e-23
-9.69283e-19
3.65949e-14
6.2703e-08
-1.67659e-27
-4.5925e-23
-9.71819e-19
3.31717e-14
6.00712e-08
-1.67649e-27
-4.58428e-23
-8.90536e-19
1.14389e-13
1.4034e-07
-1.7705e-27
-4.7471e-23
-8.86495e-19
1.19581e-13
1.44609e-07
-1.77378e-27
-4.75414e-23
-8.87476e-19
1.19553e-13
1.4461e-07
-1.78464e-27
-4.7776e-23
-8.91076e-19
1.19288e-13
1.4457e-07
-1.78515e-27
-4.779e-23
-8.91532e-19
1.19202e-13
1.44521e-07
-1.78653e-27
-4.78297e-23
-8.93011e-19
1.18875e-13
1.44341e-07
-1.78666e-27
-4.78341e-23
-8.93213e-19
1.18828e-13
1.44313e-07
-1.78698e-27
-4.78454e-23
-8.93772e-19
1.18682e-13
1.44229e-07
-1.78702e-27
-4.78468e-23
-8.93847e-19
1.18663e-13
1.44218e-07
-1.78709e-27
-4.78495e-23
-8.9399e-19
1.18623e-13
1.44195e-07
-1.78709e-27
-4.78495e-23
-8.9399e-19
1.18623e-13
1.44195e-07
-1.78702e-27
-4.78468e-23
-8.93847e-19
1.18663e-13
1.44218e-07
-1.78698e-27
-4.78454e-23
-8.93772e-19
1.18682e-13
1.44229e-07
-1.78666e-27
-4.78341e-23
-8.93213e-19
1.18828e-13
1.44313e-07
-1.78653e-27
-4.78297e-23
-8.93011e-19
1.18875e-13
1.44341e-07
-1.78515e-27
-4.779e-23
-8.91532e-19
1.19202e-13
1.44521e-07
-1.78464e-27
-4.7776e-23
-8.91076e-19
1.19288e-13
1.4457e-07
-1.77378e-27
-4.75414e-23
-8.87476e-19
1.19553e-13
1.4461e-07
-1.7705e-27
-4.7471e-23
-8.86495e-19
1.19581e-13
1.44609e-07
-1.67649e-27
-4.58428e-23
-8.90537e-19
1.14389e-13
1.4034e-07
-1.67626e-27
-4.565e-23
-7.12733e-19
2.67464e-13
2.64203e-07
-1.77027e-27
-4.72768e-23
-7.0695e-19
2.74544e-13
2.69679e-07
-1.77356e-27
-4.73475e-23
-7.08072e-19
2.74454e-13
2.69661e-07
-1.78442e-27
-4.75834e-23
-7.12593e-19
2.73782e-13
2.69509e-07
-1.78493e-27
-4.75976e-23
-7.13196e-19
2.73618e-13
2.69429e-07
-1.78631e-27
-4.76381e-23
-7.15258e-19
2.72989e-13
2.69137e-07
-1.78644e-27
-4.76426e-23
-7.15538e-19
2.729e-13
2.69092e-07
-1.78676e-27
-4.76543e-23
-7.16354e-19
2.72619e-13
2.68957e-07
-1.7868e-27
-4.76557e-23
-7.1646e-19
2.72583e-13
2.68939e-07
-1.78687e-27
-4.76585e-23
-7.16674e-19
2.72506e-13
2.68902e-07
-1.78687e-27
-4.76585e-23
-7.16674e-19
2.72506e-13
2.68902e-07
-1.7868e-27
-4.76557e-23
-7.1646e-19
2.72583e-13
2.68939e-07
-1.78676e-27
-4.76543e-23
-7.16354e-19
2.72619e-13
2.68957e-07
-1.78644e-27
-4.76426e-23
-7.15538e-19
2.729e-13
2.69092e-07
-1.78631e-27
-4.76381e-23
-7.15258e-19
2.72989e-13
2.69137e-07
-1.78493e-27
-4.75976e-23
-7.13196e-19
2.73618e-13
2.69429e-07
-1.78442e-27
-4.75834e-23
-7.12593e-19
2.73782e-13
2.69509e-07
-1.77356e-27
-4.73475e-23
-7.08072e-19
2.74454e-13
2.69661e-07
-1.77027e-27
-4.72768e-23
-7.0695e-19
2.74544e-13
2.69679e-07
-1.67626e-27
-4.565e-23
-7.12733e-19
2.67464e-13
2.64203e-07
-1.67579e-27
-4.52501e-23
-3.77329e-19
5.17254e-13
4.30662e-07
-1.7698e-27
-4.68767e-23
-3.70535e-19
5.25653e-13
4.36517e-07
-1.77308e-27
-4.69478e-23
-3.71937e-19
5.25449e-13
4.3646e-07
-1.78395e-27
-4.71867e-23
-3.78262e-19
5.24044e-13
4.36087e-07
-1.78446e-27
-4.72013e-23
-3.79129e-19
5.23761e-13
4.35968e-07
-1.78584e-27
-4.72435e-23
-3.82249e-19
5.22661e-13
4.35532e-07
-1.78597e-27
-4.72482e-23
-3.82668e-19
5.22509e-13
4.35467e-07
-1.7863e-27
-4.72606e-23
-3.83949e-19
5.22019e-13
4.35267e-07
-1.78633e-27
-4.72622e-23
-3.84111e-19
5.21958e-13
4.35241e-07
-1.78641e-27
-4.72651e-23
-3.84455e-19
5.21822e-13
4.35185e-07
-1.78641e-27
-4.72651e-23
-3.84455e-19
5.21822e-13
4.35185e-07
-1.78633e-27
-4.72622e-23
-3.84111e-19
5.21958e-13
4.35241e-07
-1.7863e-27
-4.72606e-23
-3.83949e-19
5.22019e-13
4.35267e-07
-1.78597e-27
-4.72482e-23
-3.82668e-19
5.22509e-13
4.35467e-07
-1.78584e-27
-4.72435e-23
-3.82249e-19
5.22661e-13
4.35532e-07
-1.78446e-27
-4.72013e-23
-3.79129e-19
5.23761e-13
4.35968e-07
-1.78395e-27
-4.71867e-23
-3.78262e-19
5.24044e-13
4.36087e-07
-1.77308e-27
-4.69478e-23
-3.71937e-19
5.25449e-13
4.3646e-07
-1.7698e-27
-4.68767e-23
-3.70535e-19
5.25653e-13
4.36517e-07
-1.67579e-27
-4.52501e-23
-3.7733e-19
5.17254e-13
4.30662e-07
-1.67483e-27
-4.44998e-23
1.91356e-19
8.86779e-13
6.36417e-07
-1.76884e-27
-4.61303e-23
1.96831e-19
8.95157e-13
6.41666e-07
-1.77214e-27
-4.62023e-23
1.94931e-19
8.94764e-13
6.41547e-07
-1.78301e-27
-4.64469e-23
1.85439e-19
8.92174e-13
6.4081e-07
-1.78353e-27
-4.64623e-23
1.84138e-19
8.91719e-13
6.40644e-07
-1.78491e-27
-4.65076e-23
1.79266e-19
8.89937e-13
6.4002e-07
-1.78504e-27
-4.65127e-23
1.78618e-19
8.89694e-13
6.3993e-07
-1.78537e-27
-4.65265e-23
1.76569e-19
8.88903e-13
6.39647e-07
-1.7854e-27
-4.65282e-23
1.76316e-19
8.88806e-13
6.39612e-07
-1.78548e-27
-4.65315e-23
1.75758e-19
8.88586e-13
6.39533e-07
-1.78548e-27
-4.65315e-23
1.75758e-19
8.88586e-13
6.39533e-07
-1.7854e-27
-4.65282e-23
1.76316e-19
8.88806e-13
6.39612e-07
-1.78537e-27
-4.65265e-23
1.76569e-19
8.88903e-13
6.39647e-07
-1.78504e-27
-4.65127e-23
1.78618e-19
8.89694e-13
6.3993e-07
-1.78491e-27
-4.65076e-23
1.79266e-19
8.89937e-13
6.4002e-07
-1.78353e-27
-4.64623e-23
1.84139e-19
8.91719e-13
6.40644e-07
-1.78301e-27
-4.64469e-23
1.85439e-19
8.92174e-13
6.4081e-07
-1.77214e-27
-4.62023e-23
1.94931e-19
8.94764e-13
6.41547e-07
-1.76884e-27
-4.61303e-23
1.96831e-19
8.95157e-13
6.41666e-07
-1.67483e-27
-4.44998e-23
1.91356e-19
8.86779e-13
6.36417e-07
-1.67304e-27
-4.32013e-23
1.0822e-18
1.39686e-12
8.77632e-07
-1.76708e-27
-4.48444e-23
1.08178e-18
1.40308e-12
8.81234e-07
-1.77037e-27
-4.4918e-23
1.07907e-18
1.40241e-12
8.81028e-07
-1.78126e-27
-4.51728e-23
1.06445e-18
1.39804e-12
8.79761e-07
-1.78178e-27
-4.51895e-23
1.06248e-18
1.39735e-12
8.79536e-07
-1.78318e-27
-4.52401e-23
1.0549e-18
1.39462e-12
8.78668e-07
-1.7833e-27
-4.52459e-23
1.0539e-18
1.39426e-12
8.78547e-07
-1.78364e-27
-4.5262e-23
1.05067e-18
1.39305e-12
8.7816e-07
-1.78368e-27
-4.5264e-23
1.05027e-18
1.39291e-12
8.78111e-07
-1.78375e-27
-4.5268e-23
1.04938e-18
1.39257e-12
8.78003e-07
-1.78375e-27
-4.5268e-23
1.04938e-18
1.39257e-12
8.78003e-07
-1.78368e-27
-4.5264e-23
1.05027e-18
1.39291e-12
8.78111e-07
-1.78364e-27
-4.5262e-23
1.05067e-18
1.39305e-12
8.7816e-07
-1.7833e-27
-4.52459e-23
1.0539e-18
1.39426e-12
8.78547e-07
-1.78318e-27
-4.52401e-23
1.0549e-18
1.39462e-12
8.78668e-07
-1.78178e-27
-4.51895e-23
1.06248e-18
1.39735e-12
8.79536e-07
-1.78126e-27
-4.51728e-23
1.06445e-18
1.39804e-12
8.79761e-07
-1.77037e-27
-4.4918e-23
1.07907e-18
1.40241e-12
8.81028e-07
-1.76708e-27
-4.48444e-23
1.08178e-18
1.40308e-12
8.81234e-07
-1.67304e-27
-4.32013e-23
1.0822e-18
1.39686e-12
8.77632e-07
-1.66993e-27
-4.11577e-23
2.29392e-18
1.9053e-12
8.75244e-07
-1.76403e-27
-4.28268e-23
2.28302e-18
1.90939e-12
8.78909e-07
-1.76733e-27
-4.29031e-23
2.2792e-18
1.90844e-12
8.78707e-07
-1.77825e-27
-4.31742e-23
2.2575e-18
1.90231e-12
8.77461e-07
-1.77878e-27
-4.31929e-23
2.25464e-18
1.90139e-12
8.77239e-07
-1.78018e-27
-4.32518e-23
2.24339e-18
1.89773e-12
8.76381e-07
-1.78032e-27
-4.32586e-23
2.24193e-18
1.89724e-12
8.76262e-07
-1.78066e-27
-4.32783e-23
2.2371e-18
1.89563e-12
8.75879e-07
-1.7807e-27
-4.32807e-23
2.23652e-18
1.89543e-12
8.75831e-07
-1.78077e-27
-4.32857e-23
2.23518e-18
1.89498e-12
8.75724e-07
-1.78077e-27
-4.32857e-23
2.23518e-18
1.89498e-12
8.75724e-07
-1.7807e-27
-4.32807e-23
2.23652e-18
1.89543e-12
8.75831e-07
-1.78066e-27
-4.32783e-23
2.2371e-18
1.89563e-12
8.75879e-07
-1.78032e-27
-4.32586e-23
2.24193e-18
1.89724e-12
8.76262e-07
-1.78018e-27
-4.32518e-23
2.24339e-18
1.89773e-12
8.76381e-07
-1.77878e-27
-4.31929e-23
2.25464e-18
1.90139e-12
8.77239e-07
-1.77825e-27
-4.31742e-23
2.2575e-18
1.90231e-12
8.77461e-07
-1.76733e-27
-4.29031e-23
2.2792e-18
1.90844e-12
8.78707e-07
-1.76403e-27
-4.28268e-23
2.28302e-18
1.90939e-12
8.78909e-07
-1.66993e-27
-4.11577e-23
2.29391e-18
1.9053e-12
8.75244e-07
-1.66491e-27
-3.81732e-23
3.82515e-18
2.41208e-12
8.72921e-07
-1.7591e-27
-3.98865e-23
3.79921e-18
2.41407e-12
8.76648e-07
-1.76242e-27
-3.99666e-23
3.79397e-18
2.41284e-12
8.7645e-07
-1.7734e-27
-4.02617e-23
3.76328e-18
2.40497e-12
8.75225e-07
-1.77392e-27
-4.02833e-23
3.7593e-18
2.40383e-12
8.75005e-07
-1.77536e-27
-4.03543e-23
3.74345e-18
2.39923e-12
8.74157e-07
-1.77549e-27
-4.03626e-23
3.7414e-18
2.39863e-12
8.74039e-07
-1.77585e-27
-4.03876e-23
3.73456e-18
2.3966e-12
8.7366e-07
-1.77589e-27
-4.03906e-23
3.73375e-18
2.39636e-12
8.73613e-07
-1.77596e-27
-4.03971e-23
3.73186e-18
2.3958e-12
8.73507e-07
-1.77596e-27
-4.0397e-23
3.73186e-18
2.3958e-12
8.73507e-07
-1.77589e-27
-4.03906e-23
3.73375e-18
2.39636e-12
8.73613e-07
-1.77585e-27
-4.03876e-23
3.73456e-18
2.3966e-12
8.7366e-07
-1.77549e-27
-4.03626e-23
3.7414e-18
2.39863e-12
8.74039e-07
-1.77536e-27
-4.03543e-23
3.74345e-18
2.39923e-12
8.74157e-07
-1.77392e-27
-4.02833e-23
3.7593e-18
2.40383e-12
8.75005e-07
-1.7734e-27
-4.02617e-23
3.76328e-18
2.40497e-12
8.75225e-07
-1.76242e-27
-3.99666e-23
3.79397e-18
2.41284e-12
8.7645e-07
-1.7591e-27
-3.98865e-23
3.79921e-18
2.41407e-12
8.76648e-07
-1.66491e-27
-3.81733e-23
3.82515e-18
2.41208e-12
8.72921e-07
-1.65724e-27
-3.4053e-23
5.67446e-18
2.91712e-12
8.70659e-07
-1.7516e-27
-3.58333e-23
5.62891e-18
2.91703e-12
8.74445e-07
-1.75494e-27
-3.59186e-23
5.62196e-18
2.91554e-12
8.7425e-07
-1.76599e-27
-3.62471e-23
5.58037e-18
2.90595e-12
8.73046e-07
-1.76653e-27
-3.62727e-23
5.57507e-18
2.90458e-12
8.72828e-07
-1.768e-27
-3.63603e-23
5.55367e-18
2.89906e-12
8.7199e-07
-1.76814e-27
-3.63707e-23
5.55093e-18
2.89834e-12
8.71873e-07
-1.76851e-27
-3.64028e-23
5.54168e-18
2.89592e-12
8.71498e-07
-1.76855e-27
-3.64067e-23
5.54059e-18
2.89563e-12
8.71452e-07
-1.76864e-27
-3.64152e-23
5.53802e-18
2.89495e-12
8.71347e-07
-1.76864e-27
-3.64151e-23
5.53802e-18
2.89495e-12
8.71347e-07
-1.76855e-27
-3.64067e-23
5.54059e-18
2.89563e-12
8.71452e-07
-1.76851e-27
-3.64028e-23
5.54168e-18
2.89592e-12
8.71498e-07
-1.76814e-27
-3.63707e-23
5.55093e-18
2.89834e-12
8.71873e-07
-1.768e-27
-3.63603e-23
5.55367e-18
2.89906e-12
8.7199e-07
-1.76653e-27
-3.62727e-23
5.57507e-18
2.90458e-12
8.72828e-07
-1.76599e-27
-3.62471e-23
5.58037e-18
2.90595e-12
8.73046e-07
-1.75494e-27
-3.59186e-23
5.62196e-18
2.91554e-12
8.7425e-07
-1.7516e-27
-3.58333e-23
5.62891e-18
2.91703e-12
8.74445e-07
-1.65724e-27
-3.4053e-23
5.67446e-18
2.91712e-12
8.70659e-07
-1.64606e-27
-2.86031e-23
7.84033e-18
3.42037e-12
8.68451e-07
-1.74069e-27
-3.04781e-23
7.77058e-18
3.41821e-12
8.72295e-07
-1.74405e-27
-3.05705e-23
7.76164e-18
3.41645e-12
8.72104e-07
-1.75522e-27
-3.09432e-23
7.7073e-18
3.40517e-12
8.70919e-07
-1.75577e-27
-3.0974e-23
7.70044e-18
3.40358e-12
8.70704e-07
-1.7573e-27
-3.10835e-23
7.67259e-18
3.39715e-12
8.69874e-07
-1.75745e-27
-3.10966e-23
7.66904e-18
3.39631e-12
8.69759e-07
-1.75784e-27
-3.11383e-23
7.65697e-18
3.39349e-12
8.69388e-07
-1.75789e-27
-3.11432e-23
7.65555e-18
3.39315e-12
8.69342e-07
-1.75798e-27
-3.11543e-23
7.6522e-18
3.39236e-12
8.69239e-07
-1.75798e-27
-3.11543e-23
7.6522e-18
3.39236e-12
8.69239e-07
-1.75789e-27
-3.11432e-23
7.65555e-18
3.39315e-12
8.69342e-07
-1.75784e-27
-3.11383e-23
7.65697e-18
3.39349e-12
8.69388e-07
-1.75745e-27
-3.10966e-23
7.66904e-18
3.39631e-12
8.69759e-07
-1.7573e-27
-3.10835e-23
7.67259e-18
3.39715e-12
8.69874e-07
-1.75577e-27
-3.0974e-23
7.70044e-18
3.40358e-12
8.70704e-07
-1.75522e-27
-3.09432e-23
7.7073e-18
3.40517e-12
8.70919e-07
-1.74405e-27
-3.05704e-23
7.76164e-18
3.41645e-12
8.72104e-07
-1.74069e-27
-3.04781e-23
7.77058e-18
3.41821e-12
8.72295e-07
-1.64606e-27
-2.86031e-23
7.84033e-18
3.42037e-12
8.68451e-07
-1.63039e-27
-2.16309e-23
1.03212e-17
3.92172e-12
8.66295e-07
-1.72541e-27
-2.36333e-23
1.02226e-17
3.91753e-12
8.70194e-07
-1.7288e-27
-2.37345e-23
1.02114e-17
3.91551e-12
8.70007e-07
-1.74014e-27
-2.41639e-23
1.01425e-17
3.90256e-12
8.68841e-07
-1.74071e-27
-2.42014e-23
1.01339e-17
3.90075e-12
8.68629e-07
-1.74232e-27
-2.43388e-23
1.00986e-17
3.89342e-12
8.67808e-07
-1.74248e-27
-2.43554e-23
1.00942e-17
3.89246e-12
8.67694e-07
-1.74291e-27
-2.44091e-23
1.00789e-17
3.88924e-12
8.67327e-07
-1.74295e-27
-2.44155e-23
1.00771e-17
3.88886e-12
8.67281e-07
-1.74305e-27
-2.44299e-23
1.00729e-17
3.88796e-12
8.67179e-07
-1.74305e-27
-2.44299e-23
1.00729e-17
3.88796e-12
8.67179e-07
-1.74295e-27
-2.44155e-23
1.00771e-17
3.88886e-12
8.67281e-07
-1.74291e-27
-2.44091e-23
1.00789e-17
3.88924e-12
8.67327e-07
-1.74248e-27
-2.43554e-23
1.00942e-17
3.89246e-12
8.67694e-07
-1.74232e-27
-2.43388e-23
1.00986e-17
3.89342e-12
8.67808e-07
-1.74071e-27
-2.42014e-23
1.01339e-17
3.90075e-12
8.68629e-07
-1.74014e-27
-2.41639e-23
1.01425e-17
3.90256e-12
8.68841e-07
-1.7288e-27
-2.37345e-23
1.02114e-17
3.91551e-12
8.70007e-07
-1.72541e-27
-2.36333e-23
1.02226e-17
3.91753e-12
8.70194e-07
-1.63039e-27
-2.1631e-23
1.03212e-17
3.92172e-12
8.66295e-07
-1.60911e-27
-1.29451e-23
1.31153e-17
4.42112e-12
8.64186e-07
-1.7047e-27
-1.51121e-23
1.29834e-17
4.41491e-12
8.68139e-07
-1.70812e-27
-1.52244e-23
1.29696e-17
4.41264e-12
8.67956e-07
-1.71969e-27
-1.57245e-23
1.28843e-17
4.39803e-12
8.66809e-07
-1.72029e-27
-1.57702e-23
1.28737e-17
4.39601e-12
8.66598e-07
-1.722e-27
-1.59423e-23
1.28302e-17
4.38778e-12
8.65786e-07
-1.72217e-27
-1.59631e-23
1.28247e-17
4.38671e-12
8.65673e-07
-1.72265e-27
-1.60319e-23
1.28058e-17
4.3831e-12
8.6531e-07
-1.7227e-27
-1.60399e-23
1.28036e-17
4.38267e-12
8.65265e-07
-1.72282e-27
-1.60586e-23
1.27984e-17
4.38167e-12
8.65163e-07
-1.72282e-27
-1.60586e-23
1.27984e-17
4.38167e-12
8.65163e-07
-1.7227e-27
-1.60399e-23
1.28036e-17
4.38267e-12
8.65265e-07
-1.72265e-27
-1.60319e-23
1.28058e-17
4.3831e-12
8.6531e-07
-1.72217e-27
-1.59631e-23
1.28247e-17
4.38671e-12
8.65673e-07
-1.722e-27
-1.59423e-23
1.28302e-17
4.38778e-12
8.65786e-07
-1.72028e-27
-1.57702e-23
1.28737e-17
4.39601e-12
8.66598e-07
-1.71969e-27
-1.57245e-23
1.28843e-17
4.39803e-12
8.66809e-07
-1.70812e-27
-1.52244e-23
1.29696e-17
4.41264e-12
8.67956e-07
-1.7047e-27
-1.51121e-23
1.29834e-17
4.41491e-12
8.68139e-07
-1.60911e-27
-1.29451e-23
1.31153e-17
4.42112e-12
8.64186e-07
-1.581e-27
-2.35529e-24
1.62209e-17
4.91847e-12
8.62121e-07
-1.67735e-27
-4.72932e-24
1.6051e-17
4.91026e-12
8.66126e-07
-1.68083e-27
-4.85507e-24
1.60344e-17
4.90774e-12
8.65946e-07
-1.69269e-27
-5.44126e-24
1.59309e-17
4.89151e-12
8.64817e-07
-1.69332e-27
-5.49692e-24
1.59182e-17
4.88927e-12
8.64609e-07
-1.69518e-27
-5.71114e-24
1.58655e-17
4.88017e-12
8.63804e-07
-1.69537e-27
-5.73712e-24
1.58589e-17
4.87899e-12
8.63693e-07
-1.69591e-27
-5.82418e-24
1.5836e-17
4.87499e-12
8.63333e-07
-1.69597e-27
-5.83428e-24
1.58334e-17
4.87452e-12
8.63289e-07
-1.6961e-27
-5.85802e-24
1.5827e-17
4.8734e-12
8.63188e-07
-1.6961e-27
-5.85801e-24
1.5827e-17
4.8734e-12
8.63188e-07
-1.69597e-27
-5.83428e-24
1.58334e-17
4.87452e-12
8.63289e-07
-1.69591e-27
-5.82418e-24
1.5836e-17
4.87499e-12
8.63333e-07
-1.69537e-27
-5.73712e-24
1.58589e-17
4.87899e-12
8.63693e-07
-1.69519e-27
-5.71115e-24
1.58655e-17
4.88017e-12
8.63804e-07
-1.69332e-27
-5.49691e-24
1.59182e-17
4.88927e-12
8.64609e-07
-1.69269e-27
-5.44126e-24
1.59309e-17
4.89151e-12
8.64817e-07
-1.68083e-27
-4.85506e-24
1.60344e-17
4.90774e-12
8.65946e-07
-1.67735e-27
-4.72931e-24
1.6051e-17
4.91026e-12
8.66126e-07
-1.581e-27
-2.35529e-24
1.62209e-17
4.91847e-12
8.62121e-07
-1.54469e-27
1.03275e-23
1.96362e-17
5.41368e-12
8.60095e-07
-1.64206e-27
7.69917e-24
1.94237e-17
5.40351e-12
8.64151e-07
-1.64561e-27
7.55737e-24
1.94041e-17
5.40075e-12
8.63974e-07
-1.65785e-27
6.86816e-24
1.92807e-17
5.38291e-12
8.62863e-07
-1.65853e-27
6.80066e-24
1.92655e-17
5.38047e-12
8.62656e-07
-1.66057e-27
6.53609e-24
1.92028e-17
5.37049e-12
8.6186e-07
-1.66078e-27
6.50398e-24
1.9195e-17
5.3692e-12
8.6175e-07
-1.6614e-27
6.39512e-24
1.91677e-17
5.36482e-12
8.61394e-07
-1.66147e-27
6.38256e-24
1.91646e-17
5.3643e-12
8.61349e-07
-1.66162e-27
6.35275e-24
1.9157e-17
5.36308e-12
8.6125e-07
-1.66162e-27
6.35276e-24
1.9157e-17
5.36308e-12
8.6125e-07
-1.66147e-27
6.38256e-24
1.91646e-17
5.3643e-12
8.61349e-07
-1.6614e-27
6.39512e-24
1.91677e-17
5.36482e-12
8.61394e-07
-1.66078e-27
6.50398e-24
1.9195e-17
5.3692e-12
8.6175e-07
-1.66057e-27
6.53609e-24
1.92028e-17
5.37049e-12
8.6186e-07
-1.65852e-27
6.80067e-24
1.92655e-17
5.38047e-12
8.62656e-07
-1.65785e-27
6.86816e-24
1.92807e-17
5.38291e-12
8.62863e-07
-1.6456e-27
7.55737e-24
1.94041e-17
5.40075e-12
8.63974e-07
-1.64206e-27
7.69919e-24
1.94237e-17
5.40351e-12
8.64151e-07
-1.54469e-27
1.03275e-23
1.96362e-17
5.41368e-12
8.60095e-07
-1.4987e-27
2.52909e-23
2.33592e-17
5.90668e-12
8.581e-07
-1.5974e-27
2.2356e-23
2.30996e-17
5.89456e-12
8.62205e-07
-1.60102e-27
2.21953e-23
2.30766e-17
5.89156e-12
8.62032e-07
-1.61375e-27
2.13848e-23
2.29316e-17
5.87215e-12
8.60938e-07
-1.61448e-27
2.13034e-23
2.29139e-17
5.8695e-12
8.60733e-07
-1.61676e-27
2.09796e-23
2.28403e-17
5.85866e-12
8.59945e-07
-1.617e-27
2.09403e-23
2.28311e-17
5.85726e-12
8.59836e-07
-1.61772e-27
2.08058e-23
2.27991e-17
5.8525e-12
8.59483e-07
-1.6178e-27
2.07904e-23
2.27954e-17
5.85194e-12
8.59439e-07
-1.61798e-27
2.07534e-23
2.27866e-17
5.85062e-12
8.59341e-07
-1.61798e-27
2.07534e-23
2.27866e-17
5.85062e-12
8.59341e-07
-1.6178e-27
2.07904e-23
2.27954e-17
5.85194e-12
8.59439e-07
-1.61772e-27
2.08058e-23
2.27991e-17
5.8525e-12
8.59483e-07
-1.617e-27
2.09403e-23
2.28311e-17
5.85726e-12
8.59836e-07
-1.61676e-27
2.09796e-23
2.28403e-17
5.85866e-12
8.59945e-07
-1.61448e-27
2.13034e-23
2.29139e-17
5.8695e-12
8.60733e-07
-1.61375e-27
2.13848e-23
2.29316e-17
5.87215e-12
8.60938e-07
-1.60102e-27
2.21953e-23
2.30766e-17
5.89156e-12
8.62032e-07
-1.5974e-27
2.2356e-23
2.30996e-17
5.89456e-12
8.62205e-07
-1.4987e-27
2.52909e-23
2.33592e-17
5.90668e-12
8.581e-07
-1.44143e-27
4.27213e-23
2.7388e-17
6.39734e-12
8.56104e-07
-1.5418e-27
3.94225e-23
2.70766e-17
6.3833e-12
8.60259e-07
-1.54552e-27
3.92399e-23
2.705e-17
6.38007e-12
8.60089e-07
-1.55886e-27
3.82883e-23
2.68817e-17
6.35911e-12
8.59011e-07
-1.55966e-27
3.81909e-23
2.68613e-17
6.35626e-12
8.58809e-07
-1.56222e-27
3.77982e-23
2.67759e-17
6.34457e-12
8.58029e-07
-1.5625e-27
3.77506e-23
2.67653e-17
6.34307e-12
8.5792e-07
-1.56334e-27
3.75863e-23
2.67282e-17
6.33794e-12
8.57571e-07
-1.56343e-27
3.75676e-23
2.6724e-17
6.33734e-12
8.57528e-07
-1.56365e-27
3.75223e-23
2.67136e-17
6.33591e-12
8.57431e-07
-1.56365e-27
3.75223e-23
2.67136e-17
6.33591e-12
8.57431e-07
-1.56343e-27
3.75676e-23
2.6724e-17
6.33734e-12
8.57528e-07
-1.56334e-27
3.75863e-23
2.67282e-17
6.33794e-12
8.57571e-07
-1.5625e-27
3.77506e-23
2.67653e-17
6.34307e-12
8.5792e-07
-1.56222e-27
3.77982e-23
2.67759e-17
6.34457e-12
8.58029e-07
-1.55965e-27
3.81909e-23
2.68613e-17
6.35626e-12
8.58809e-07
-1.55886e-27
3.82883e-23
2.68817e-17
6.35911e-12
8.59011e-07
-1.54552e-27
3.92399e-23
2.705e-17
6.38007e-12
8.60089e-07
-1.5418e-27
3.94225e-23
2.70766e-17
6.3833e-12
8.60259e-07
-1.44143e-27
4.27213e-23
2.7388e-17
6.39734e-12
8.56104e-07
2.25316e-05
6.39789e-07
-7.82416e-08
-1.22775e-09
-2.59579e-12
2.48183e-15
3.59549e-15
3.60581e-15
3.60804e-15
3.60841e-15
3.60866e-15
3.61023e-15
3.61843e-15
3.62858e-15
3.71328e-15
3.78676e-15
4.56393e-15
4.98941e-15
1.58511e-14
1.85452e-14
2.75748e-05
1.22506e-06
-6.96761e-08
-1.26474e-09
-2.84876e-12
2.32278e-15
3.59514e-15
3.60571e-15
3.60798e-15
3.60835e-15
3.60846e-15
3.60973e-15
3.61811e-15
3.62843e-15
3.71453e-15
3.78887e-15
4.57597e-15
5.00423e-15
1.59893e-14
1.87137e-14
2.76354e-05
1.23134e-06
-6.95553e-08
-1.26421e-09
-2.84884e-12
2.32206e-15
3.59514e-15
3.60571e-15
3.60799e-15
3.60835e-15
3.60846e-15
3.60976e-15
3.61814e-15
3.62847e-15
3.7146e-15
3.78896e-15
4.57621e-15
5.00448e-15
1.59907e-14
1.87151e-14
2.78394e-05
1.25072e-06
-6.90025e-08
-1.25746e-09
-2.83345e-12
2.32746e-15
3.59513e-15
3.60572e-15
3.608e-15
3.60836e-15
3.60849e-15
3.6099e-15
3.6183e-15
3.62863e-15
3.71487e-15
3.78927e-15
4.57698e-15
5.00531e-15
1.59949e-14
1.87188e-14
2.78189e-05
1.24826e-06
-6.90321e-08
-1.2571e-09
-2.83175e-12
2.32832e-15
3.59513e-15
3.60572e-15
3.60799e-15
3.60836e-15
3.60849e-15
3.6099e-15
3.6183e-15
3.62864e-15
3.71487e-15
3.78928e-15
4.577e-15
5.00534e-15
1.5995e-14
1.87189e-14
2.77521e-05
1.23946e-06
-6.91118e-08
-1.25535e-09
-2.82468e-12
2.33179e-15
3.59513e-15
3.60572e-15
3.60799e-15
3.60836e-15
3.6085e-15
3.60991e-15
3.61831e-15
3.62865e-15
3.71489e-15
3.78929e-15
4.57704e-15
5.00537e-15
1.59951e-14
1.8719e-14
2.77393e-05
1.23794e-06
-6.91336e-08
-1.25524e-09
-2.82397e-12
2.33217e-15
3.59513e-15
3.60572e-15
3.608e-15
3.60837e-15
3.6085e-15
3.60991e-15
3.61831e-15
3.62865e-15
3.71489e-15
3.7893e-15
4.57704e-15
5.00538e-15
1.59951e-14
1.8719e-14
2.77073e-05
1.23377e-06
-6.91825e-08
-1.25471e-09
-2.82155e-12
2.33338e-15
3.59513e-15
3.60572e-15
3.608e-15
3.60837e-15
3.6085e-15
3.60991e-15
3.61831e-15
3.62865e-15
3.71489e-15
3.7893e-15
4.57705e-15
5.00538e-15
1.59951e-14
1.8719e-14
2.77024e-05
1.23318e-06
-6.91915e-08
-1.25468e-09
-2.82132e-12
2.3335e-15
3.59513e-15
3.60572e-15
3.608e-15
3.60837e-15
3.6085e-15
3.60991e-15
3.61831e-15
3.62865e-15
3.71489e-15
3.7893e-15
4.57705e-15
5.00538e-15
1.59951e-14
1.8719e-14
2.76941e-05
1.23208e-06
-6.92052e-08
-1.25456e-09
-2.82075e-12
2.33378e-15
3.59513e-15
3.60572e-15
3.60799e-15
3.60836e-15
3.6085e-15
3.60991e-15
3.61831e-15
3.62865e-15
3.71489e-15
3.7893e-15
4.57704e-15
5.00538e-15
1.59951e-14
1.8719e-14
2.76941e-05
1.23208e-06
-6.92052e-08
-1.25456e-09
-2.82075e-12
2.33378e-15
3.59513e-15
3.60572e-15
3.60799e-15
3.60836e-15
3.6085e-15
3.60991e-15
3.61831e-15
3.62865e-15
3.71489e-15
3.7893e-15
4.57704e-15
5.00538e-15
1.59951e-14
1.8719e-14
2.77024e-05
1.23318e-06
-6.91915e-08
-1.25468e-09
-2.82132e-12
2.3335e-15
3.59513e-15
3.60572e-15
3.608e-15
3.60837e-15
3.6085e-15
3.60991e-15
3.61831e-15
3.62865e-15
3.71489e-15
3.7893e-15
4.57705e-15
5.00538e-15
1.59951e-14
1.8719e-14
2.77073e-05
1.23377e-06
-6.91825e-08
-1.25471e-09
-2.82155e-12
2.33338e-15
3.59513e-15
3.60572e-15
3.608e-15
3.60837e-15
3.6085e-15
3.60991e-15
3.61831e-15
3.62865e-15
3.71489e-15
3.7893e-15
4.57705e-15
5.00538e-15
1.59951e-14
1.8719e-14
2.77393e-05
1.23794e-06
-6.91336e-08
-1.25524e-09
-2.82397e-12
2.33217e-15
3.59513e-15
3.60572e-15
3.608e-15
3.60837e-15
3.6085e-15
3.60991e-15
3.61831e-15
3.62865e-15
3.71489e-15
3.7893e-15
4.57704e-15
5.00538e-15
1.59951e-14
1.8719e-14
2.77521e-05
1.23946e-06
-6.91118e-08
-1.25535e-09
-2.82468e-12
2.33179e-15
3.59513e-15
3.60572e-15
3.60799e-15
3.60836e-15
3.6085e-15
3.60991e-15
3.61831e-15
3.62865e-15
3.71489e-15
3.78929e-15
4.57704e-15
5.00537e-15
1.59951e-14
1.8719e-14
2.78189e-05
1.24826e-06
-6.90321e-08
-1.2571e-09
-2.83175e-12
2.32832e-15
3.59513e-15
3.60572e-15
3.60799e-15
3.60836e-15
3.60849e-15
3.6099e-15
3.6183e-15
3.62864e-15
3.71487e-15
3.78928e-15
4.577e-15
5.00534e-15
1.5995e-14
1.87189e-14
2.78394e-05
1.25072e-06
-6.90025e-08
-1.25746e-09
-2.83345e-12
2.32746e-15
3.59513e-15
3.60572e-15
3.608e-15
3.60836e-15
3.60849e-15
3.6099e-15
3.6183e-15
3.62863e-15
3.71487e-15
3.78927e-15
4.57698e-15
5.00531e-15
1.59949e-14
1.87188e-14
2.76354e-05
1.23134e-06
-6.95553e-08
-1.26421e-09
-2.84884e-12
2.32206e-15
3.59514e-15
3.60571e-15
3.60799e-15
3.60835e-15
3.60846e-15
3.60976e-15
3.61814e-15
3.62847e-15
3.7146e-15
3.78896e-15
4.57621e-15
5.00448e-15
1.59907e-14
1.87151e-14
2.75748e-05
1.22506e-06
-6.96761e-08
-1.26474e-09
-2.84876e-12
2.32278e-15
3.59514e-15
3.60571e-15
3.60798e-15
3.60835e-15
3.60846e-15
3.60973e-15
3.61811e-15
3.62843e-15
3.71453e-15
3.78887e-15
4.57597e-15
5.00423e-15
1.59893e-14
1.87137e-14
2.25316e-05
6.39789e-07
-7.82416e-08
-1.22775e-09