/*--------------------------------*- C++ -*----------------------------------*\
  =========                 |
  \\      /  F ield         | OpenFOAM: The Open Source CFD Toolbox
   \\    /   O peration     | Website:  https://openfoam.org
    \\  /    A nd           | Version:  8
     \\/     M anipulation  |
\*---------------------------------------------------------------------------*/
FoamFile
{
    version     2.0;
    format      ascii;
    class       volScalarField;
    location    "1.1";
    object      H2;
}
// * * * * * * * * * * * * * * * * * * * * * * * * * * * * * * * * * * * * * //

dimensions      [0 1 -1 0 0 0 0];

internalField   nonuniform List<scalar> 
180000
(
-3.40762e-33
-4.10836e-28
-4.55795e-23
-4.58395e-18
-4.13949e-13
-4.0014e-33
-4.79909e-28
-5.29309e-23
-5.28762e-18
-4.73745e-13
-4.01784e-33
-4.81828e-28
-5.31359e-23
-5.30729e-18
-4.7542e-13
-4.07114e-33
-4.88143e-28
-5.38206e-23
-5.37412e-18
-4.81211e-13
-4.07283e-33
-4.8835e-28
-5.3844e-23
-5.37649e-18
-4.81424e-13
-4.076e-33
-4.88751e-28
-5.38905e-23
-5.38136e-18
-4.81877e-13
-4.07595e-33
-4.8875e-28
-5.38909e-23
-5.38147e-18
-4.81893e-13
-4.07592e-33
-4.88754e-28
-5.38925e-23
-5.38173e-18
-4.81928e-13
-4.07579e-33
-4.88742e-28
-5.38914e-23
-5.38165e-18
-4.81924e-13
-4.0757e-33
-4.88733e-28
-5.38906e-23
-5.38161e-18
-4.81924e-13
-4.0757e-33
-4.88733e-28
-5.38906e-23
-5.38161e-18
-4.81924e-13
-4.07579e-33
-4.88742e-28
-5.38914e-23
-5.38165e-18
-4.81924e-13
-4.07592e-33
-4.88754e-28
-5.38925e-23
-5.38173e-18
-4.81928e-13
-4.07595e-33
-4.8875e-28
-5.38909e-23
-5.38147e-18
-4.81893e-13
-4.076e-33
-4.88751e-28
-5.38905e-23
-5.38136e-18
-4.81877e-13
-4.07283e-33
-4.8835e-28
-5.3844e-23
-5.37649e-18
-4.81424e-13
-4.07114e-33
-4.88143e-28
-5.38206e-23
-5.37412e-18
-4.81211e-13
-4.01784e-33
-4.81828e-28
-5.31359e-23
-5.30729e-18
-4.7542e-13
-4.0014e-33
-4.79909e-28
-5.29309e-23
-5.28762e-18
-4.73745e-13
-3.40762e-33
-4.10836e-28
-4.55795e-23
-4.58395e-18
-4.13949e-13
-3.40705e-33
-4.11343e-28
-4.64183e-23
-5.73303e-18
-2.20606e-12
-4.00069e-33
-4.80438e-28
-5.38308e-23
-6.53588e-18
-2.4369e-12
-4.01712e-33
-4.82357e-28
-5.40371e-23
-6.55793e-18
-2.44275e-12
-4.07041e-33
-4.88671e-28
-5.47252e-23
-6.63212e-18
-2.46292e-12
-4.0721e-33
-4.88879e-28
-5.47486e-23
-6.63469e-18
-2.4636e-12
-4.07527e-33
-4.89279e-28
-5.47946e-23
-6.63952e-18
-2.46465e-12
-4.07522e-33
-4.89278e-28
-5.4795e-23
-6.63961e-18
-2.46468e-12
-4.07519e-33
-4.89282e-28
-5.47964e-23
-6.63974e-18
-2.46466e-12
-4.07506e-33
-4.8927e-28
-5.47952e-23
-6.63964e-18
-2.46464e-12
-4.07497e-33
-4.89261e-28
-5.47945e-23
-6.63957e-18
-2.46462e-12
-4.07497e-33
-4.89261e-28
-5.47945e-23
-6.63957e-18
-2.46462e-12
-4.07506e-33
-4.8927e-28
-5.47952e-23
-6.63964e-18
-2.46464e-12
-4.07519e-33
-4.89282e-28
-5.47964e-23
-6.63974e-18
-2.46466e-12
-4.07522e-33
-4.89278e-28
-5.4795e-23
-6.63961e-18
-2.46468e-12
-4.07527e-33
-4.89279e-28
-5.47946e-23
-6.63952e-18
-2.46465e-12
-4.0721e-33
-4.88879e-28
-5.47486e-23
-6.63469e-18
-2.4636e-12
-4.07041e-33
-4.88672e-28
-5.47252e-23
-6.63212e-18
-2.46292e-12
-4.01712e-33
-4.82357e-28
-5.40371e-23
-6.55794e-18
-2.44275e-12
-4.00069e-33
-4.80438e-28
-5.38308e-23
-6.53588e-18
-2.4369e-12
-3.40705e-33
-4.11343e-28
-4.64183e-23
-5.73303e-18
-2.20606e-12
-3.41848e-33
-4.26833e-28
-6.75202e-23
-3.2953e-17
-4.26987e-11
-4.01232e-33
-4.96518e-28
-7.5963e-23
-3.53858e-17
-4.56613e-11
-4.02875e-33
-4.98448e-28
-7.61898e-23
-3.54428e-17
-4.57271e-11
-4.082e-33
-5.04759e-28
-7.69148e-23
-3.56221e-17
-4.59616e-11
-4.08369e-33
-5.04965e-28
-7.69377e-23
-3.5627e-17
-4.59687e-11
-4.08684e-33
-5.05347e-28
-7.69686e-23
-3.56259e-17
-4.59751e-11
-4.08679e-33
-5.05344e-28
-7.69679e-23
-3.56255e-17
-4.59752e-11
-4.08675e-33
-5.05343e-28
-7.69641e-23
-3.5622e-17
-4.59733e-11
-4.08662e-33
-5.0533e-28
-7.69626e-23
-3.56217e-17
-4.59731e-11
-4.08653e-33
-5.05321e-28
-7.69609e-23
-3.56208e-17
-4.59725e-11
-4.08653e-33
-5.05321e-28
-7.69609e-23
-3.56208e-17
-4.59725e-11
-4.08662e-33
-5.0533e-28
-7.69626e-23
-3.56217e-17
-4.59731e-11
-4.08675e-33
-5.05343e-28
-7.69641e-23
-3.5622e-17
-4.59733e-11
-4.08679e-33
-5.05344e-28
-7.69679e-23
-3.56255e-17
-4.59752e-11
-4.08684e-33
-5.05347e-28
-7.69686e-23
-3.56259e-17
-4.59751e-11
-4.08369e-33
-5.04965e-28
-7.69377e-23
-3.5627e-17
-4.59687e-11
-4.082e-33
-5.04759e-28
-7.69148e-23
-3.56221e-17
-4.59616e-11
-4.02875e-33
-4.98448e-28
-7.61898e-23
-3.54428e-17
-4.57271e-11
-4.01232e-33
-4.96518e-28
-7.5963e-23
-3.53858e-17
-4.56613e-11
-3.41848e-33
-4.26833e-28
-6.75202e-23
-3.2953e-17
-4.26987e-11
-3.56136e-33
-5.98667e-28
-2.86416e-22
-2.96636e-16
-4.07292e-10
-4.15557e-33
-6.70597e-28
-2.99484e-22
-3.06912e-16
-4.22869e-10
-4.17198e-33
-6.7254e-28
-2.99775e-22
-3.07111e-16
-4.23178e-10
-4.22462e-33
-6.78459e-28
-3.00362e-22
-3.07609e-16
-4.24272e-10
-4.22627e-33
-6.78634e-28
-3.00364e-22
-3.07614e-16
-4.24304e-10
-4.22917e-33
-6.78796e-28
-3.00205e-22
-3.0751e-16
-4.24286e-10
-4.2291e-33
-6.78781e-28
-3.00193e-22
-3.07504e-16
-4.24286e-10
-4.22899e-33
-6.7872e-28
-3.00135e-22
-3.07464e-16
-4.24263e-10
-4.22887e-33
-6.78704e-28
-3.00131e-22
-3.07462e-16
-4.24262e-10
-4.22877e-33
-6.78684e-28
-3.00119e-22
-3.07454e-16
-4.24257e-10
-4.22877e-33
-6.78684e-28
-3.00119e-22
-3.07454e-16
-4.24257e-10
-4.22887e-33
-6.78704e-28
-3.00131e-22
-3.07462e-16
-4.24262e-10
-4.22899e-33
-6.7872e-28
-3.00135e-22
-3.07464e-16
-4.24263e-10
-4.2291e-33
-6.78781e-28
-3.00193e-22
-3.07504e-16
-4.24286e-10
-4.22917e-33
-6.78796e-28
-3.00205e-22
-3.0751e-16
-4.24286e-10
-4.22627e-33
-6.78634e-28
-3.00364e-22
-3.07614e-16
-4.24304e-10
-4.22462e-33
-6.78459e-28
-3.00362e-22
-3.07609e-16
-4.24272e-10
-4.17198e-33
-6.7254e-28
-2.99775e-22
-3.07111e-16
-4.23178e-10
-4.15557e-33
-6.70597e-28
-2.99484e-22
-3.06912e-16
-4.22869e-10
-3.56136e-33
-5.98667e-28
-2.86416e-22
-2.96636e-16
-4.07292e-10
-4.50805e-33
-1.64039e-27
-1.4933e-21
-1.5993e-15
-1.99119e-09
-5.08055e-33
-1.69534e-27
-1.49161e-21
-1.59789e-15
-1.98857e-09
-5.09624e-33
-1.6967e-27
-1.49138e-21
-1.5977e-15
-1.98835e-09
-5.14301e-33
-1.6978e-27
-1.48792e-21
-1.59555e-15
-1.98699e-09
-5.14434e-33
-1.69772e-27
-1.48771e-21
-1.59544e-15
-1.98694e-09
-5.14549e-33
-1.69642e-27
-1.48631e-21
-1.59455e-15
-1.9864e-09
-5.14533e-33
-1.69632e-27
-1.48624e-21
-1.59451e-15
-1.98639e-09
-5.1448e-33
-1.6959e-27
-1.48588e-21
-1.59429e-15
-1.98626e-09
-5.14466e-33
-1.69587e-27
-1.48586e-21
-1.59428e-15
-1.98627e-09
-5.14448e-33
-1.69579e-27
-1.4858e-21
-1.59424e-15
-1.98625e-09
-5.14448e-33
-1.69579e-27
-1.4858e-21
-1.59424e-15
-1.98625e-09
-5.14466e-33
-1.69587e-27
-1.48586e-21
-1.59428e-15
-1.98627e-09
-5.1448e-33
-1.6959e-27
-1.48588e-21
-1.59429e-15
-1.98626e-09
-5.14533e-33
-1.69632e-27
-1.48624e-21
-1.59451e-15
-1.98639e-09
-5.14549e-33
-1.69642e-27
-1.48631e-21
-1.59455e-15
-1.9864e-09
-5.14434e-33
-1.69772e-27
-1.48771e-21
-1.59544e-15
-1.98694e-09
-5.14301e-33
-1.6978e-27
-1.48792e-21
-1.59555e-15
-1.98699e-09
-5.09624e-33
-1.6967e-27
-1.49138e-21
-1.5977e-15
-1.98835e-09
-5.08055e-33
-1.69534e-27
-1.49161e-21
-1.59789e-15
-1.98857e-09
-4.50805e-33
-1.64039e-27
-1.4933e-21
-1.5993e-15
-1.99119e-09
-8.4313e-33
-5.44699e-27
-5.2726e-21
-4.91904e-15
-4.97827e-09
-8.7861e-33
-5.28897e-27
-5.03327e-21
-4.65409e-15
-4.60596e-09
-8.79631e-33
-5.28519e-27
-5.02755e-21
-4.64813e-15
-4.59784e-09
-8.80912e-33
-5.25702e-27
-4.99625e-21
-4.62028e-15
-4.56421e-09
-8.80892e-33
-5.25571e-27
-4.995e-21
-4.61937e-15
-4.56328e-09
-8.80234e-33
-5.24835e-27
-4.98875e-21
-4.6152e-15
-4.55979e-09
-8.80181e-33
-5.248e-27
-4.98851e-21
-4.61511e-15
-4.55979e-09
-8.79955e-33
-5.24627e-27
-4.98718e-21
-4.61435e-15
-4.55936e-09
-8.79935e-33
-5.24622e-27
-4.98717e-21
-4.61438e-15
-4.55943e-09
-8.79889e-33
-5.24592e-27
-4.98696e-21
-4.61428e-15
-4.5594e-09
-8.79889e-33
-5.24592e-27
-4.98696e-21
-4.61428e-15
-4.5594e-09
-8.79935e-33
-5.24622e-27
-4.98717e-21
-4.61438e-15
-4.55943e-09
-8.79955e-33
-5.24627e-27
-4.98718e-21
-4.61435e-15
-4.55936e-09
-8.80181e-33
-5.248e-27
-4.98851e-21
-4.61511e-15
-4.55979e-09
-8.80234e-33
-5.24835e-27
-4.98875e-21
-4.6152e-15
-4.55979e-09
-8.80892e-33
-5.25571e-27
-4.995e-21
-4.61937e-15
-4.56328e-09
-8.80912e-33
-5.25702e-27
-4.99625e-21
-4.62028e-15
-4.56421e-09
-8.79631e-33
-5.28519e-27
-5.02755e-21
-4.64813e-15
-4.59784e-09
-8.7861e-33
-5.28897e-27
-5.03327e-21
-4.65409e-15
-4.60596e-09
-8.4313e-33
-5.44699e-27
-5.2726e-21
-4.91904e-15
-4.97827e-09
-1.87187e-32
-1.33566e-26
-1.06192e-20
-6.5925e-15
-2.04715e-09
-1.79563e-32
-1.21147e-26
-9.20971e-21
-5.09204e-15
-1.37892e-10
-1.79416e-32
-1.20877e-26
-9.17971e-21
-5.061e-15
-9.89195e-11
-1.7825e-32
-1.19499e-26
-9.04393e-21
-4.93183e-15
5.83171e-11
-1.78198e-32
-1.19448e-26
-9.03953e-21
-4.92818e-15
6.25282e-11
-1.77908e-32
-1.1922e-26
-9.02229e-21
-4.91634e-15
7.41733e-11
-1.77894e-32
-1.19212e-26
-9.02192e-21
-4.91633e-15
7.40322e-11
-1.77827e-32
-1.19168e-26
-9.0192e-21
-4.91514e-15
7.46303e-11
-1.77824e-32
-1.19168e-26
-9.01933e-21
-4.91538e-15
7.43038e-11
-1.77813e-32
-1.19162e-26
-9.01901e-21
-4.91535e-15
7.41839e-11
-1.77813e-32
-1.19162e-26
-9.01901e-21
-4.91535e-15
7.41839e-11
-1.77824e-32
-1.19168e-26
-9.01933e-21
-4.91538e-15
7.43038e-11
-1.77827e-32
-1.19168e-26
-9.0192e-21
-4.91514e-15
7.46303e-11
-1.77894e-32
-1.19212e-26
-9.02192e-21
-4.91633e-15
7.40322e-11
-1.77908e-32
-1.1922e-26
-9.02229e-21
-4.91634e-15
7.41733e-11
-1.78198e-32
-1.19448e-26
-9.03953e-21
-4.92818e-15
6.25283e-11
-1.7825e-32
-1.19499e-26
-9.04393e-21
-4.93183e-15
5.83173e-11
-1.79416e-32
-1.20877e-26
-9.17971e-21
-5.061e-15
-9.89188e-11
-1.79563e-32
-1.21147e-26
-9.20971e-21
-5.09204e-15
-1.37891e-10
-1.87187e-32
-1.33566e-26
-1.06192e-20
-6.5925e-15
-2.04715e-09
-3.16191e-32
-1.54849e-26
-1.42995e-21
1.37218e-14
3.24767e-08
-2.70785e-32
-1.08022e-26
3.38421e-21
1.84537e-14
3.77723e-08
-2.69866e-32
-1.0707e-26
3.48016e-21
1.85472e-14
3.78765e-08
-2.65328e-32
-1.03011e-26
3.85773e-21
1.89059e-14
3.82851e-08
-2.65172e-32
-1.02891e-26
3.86737e-21
1.89145e-14
3.82954e-08
-2.64507e-32
-1.02481e-26
3.8925e-21
1.89326e-14
3.83172e-08
-2.64487e-32
-1.02477e-26
3.89183e-21
1.89316e-14
3.83164e-08
-2.6437e-32
-1.02429e-26
3.89227e-21
1.89302e-14
3.83152e-08
-2.64372e-32
-1.02436e-26
3.89135e-21
1.89292e-14
3.83143e-08
-2.64357e-32
-1.02433e-26
3.89084e-21
1.89284e-14
3.83134e-08
-2.64357e-32
-1.02433e-26
3.89084e-21
1.89284e-14
3.83134e-08
-2.64372e-32
-1.02436e-26
3.89135e-21
1.89292e-14
3.83143e-08
-2.6437e-32
-1.02429e-26
3.89227e-21
1.89302e-14
3.83152e-08
-2.64487e-32
-1.02477e-26
3.89183e-21
1.89316e-14
3.83164e-08
-2.64507e-32
-1.02481e-26
3.8925e-21
1.89326e-14
3.83172e-08
-2.65172e-32
-1.02891e-26
3.86737e-21
1.89145e-14
3.82954e-08
-2.65328e-32
-1.03011e-26
3.85773e-21
1.89059e-14
3.82851e-08
-2.69866e-32
-1.0707e-26
3.48017e-21
1.85472e-14
3.78765e-08
-2.70785e-32
-1.08022e-26
3.38422e-21
1.84537e-14
3.77723e-08
-3.16191e-32
-1.54849e-26
-1.42995e-21
1.37218e-14
3.24767e-08
-6.95689e-33
3.63629e-26
7.6086e-20
1.05921e-13
1.43291e-07
6.66401e-33
4.85418e-26
8.74111e-20
1.15899e-13
1.52677e-07
6.9261e-33
4.87739e-26
8.76242e-20
1.16089e-13
1.52856e-07
7.93408e-33
4.95666e-26
8.83117e-20
1.16732e-13
1.53512e-07
7.95814e-33
4.95808e-26
8.83214e-20
1.16743e-13
1.53526e-07
8.01724e-33
4.95855e-26
8.83023e-20
1.16737e-13
1.53539e-07
8.01443e-33
4.95801e-26
8.82959e-20
1.16732e-13
1.53536e-07
8.01271e-33
4.95658e-26
8.82763e-20
1.16717e-13
1.53527e-07
8.00986e-33
4.95625e-26
8.8273e-20
1.16714e-13
1.53525e-07
8.00781e-33
4.95583e-26
8.82679e-20
1.1671e-13
1.53522e-07
8.00781e-33
4.95583e-26
8.82679e-20
1.1671e-13
1.53522e-07
8.00986e-33
4.95625e-26
8.8273e-20
1.16714e-13
1.53525e-07
8.01271e-33
4.95658e-26
8.82763e-20
1.16717e-13
1.53527e-07
8.01443e-33
4.95801e-26
8.82959e-20
1.16732e-13
1.53536e-07
8.01724e-33
4.95855e-26
8.83023e-20
1.16737e-13
1.53539e-07
7.95814e-33
4.95808e-26
8.83214e-20
1.16743e-13
1.53526e-07
7.93408e-33
4.95666e-26
8.83117e-20
1.16732e-13
1.53512e-07
6.92611e-33
4.87739e-26
8.76242e-20
1.16089e-13
1.52856e-07
6.66403e-33
4.85418e-26
8.74111e-20
1.15899e-13
1.52677e-07
-6.95689e-33
3.63629e-26
7.6086e-20
1.05921e-13
1.43291e-07
1.94269e-31
2.70798e-25
3.33528e-19
3.45528e-13
3.68117e-07
2.23341e-31
2.94045e-25
3.5268e-19
3.60191e-13
3.78727e-07
2.23856e-31
2.94453e-25
3.53015e-19
3.60459e-13
3.7892e-07
2.25077e-31
2.95265e-25
3.53653e-19
3.61114e-13
3.79485e-07
2.25068e-31
2.95246e-25
3.53635e-19
3.61111e-13
3.79489e-07
2.24834e-31
2.94982e-25
3.53397e-19
3.60985e-13
3.79433e-07
2.24805e-31
2.94954e-25
3.53372e-19
3.60971e-13
3.79426e-07
2.24707e-31
2.94855e-25
3.53285e-19
3.60918e-13
3.79397e-07
2.24695e-31
2.94844e-25
3.53276e-19
3.60912e-13
3.79393e-07
2.24674e-31
2.94823e-25
3.53257e-19
3.609e-13
3.79387e-07
2.24674e-31
2.94823e-25
3.53257e-19
3.609e-13
3.79387e-07
2.24695e-31
2.94844e-25
3.53276e-19
3.60912e-13
3.79393e-07
2.24707e-31
2.94855e-25
3.53285e-19
3.60918e-13
3.79397e-07
2.24805e-31
2.94954e-25
3.53372e-19
3.60971e-13
3.79426e-07
2.24834e-31
2.94982e-25
3.53397e-19
3.60985e-13
3.79433e-07
2.25068e-31
2.95246e-25
3.53635e-19
3.61111e-13
3.79489e-07
2.25077e-31
2.95265e-25
3.53653e-19
3.61114e-13
3.79485e-07
2.23856e-31
2.94453e-25
3.53015e-19
3.60459e-13
3.7892e-07
2.23341e-31
2.94045e-25
3.5268e-19
3.60191e-13
3.78727e-07
1.94269e-31
2.70798e-25
3.33528e-19
3.45528e-13
3.68117e-07
8.05989e-31
8.11751e-25
7.65571e-19
5.80034e-13
3.63174e-07
8.56607e-31
8.49361e-25
7.94048e-19
5.99493e-13
3.73852e-07
8.57409e-31
8.49966e-25
7.94517e-19
5.99842e-13
3.74048e-07
8.57443e-31
8.49998e-25
7.94795e-19
6.00539e-13
3.74632e-07
8.5729e-31
8.49884e-25
7.94725e-19
6.00525e-13
3.74638e-07
8.56074e-31
8.48957e-25
7.94106e-19
6.00288e-13
3.74588e-07
8.55971e-31
8.4888e-25
7.94053e-19
6.00264e-13
3.74581e-07
8.5559e-31
8.48588e-25
7.93853e-19
6.00175e-13
3.74553e-07
8.55556e-31
8.48562e-25
7.93835e-19
6.00166e-13
3.7455e-07
8.5548e-31
8.48504e-25
7.93795e-19
6.00148e-13
3.74544e-07
8.5548e-31
8.48504e-25
7.93795e-19
6.00148e-13
3.74544e-07
8.55556e-31
8.48562e-25
7.93835e-19
6.00166e-13
3.7455e-07
8.5559e-31
8.48588e-25
7.93853e-19
6.00175e-13
3.74553e-07
8.55971e-31
8.4888e-25
7.94053e-19
6.00264e-13
3.74581e-07
8.56074e-31
8.48957e-25
7.94106e-19
6.00288e-13
3.74588e-07
8.5729e-31
8.49884e-25
7.94725e-19
6.00525e-13
3.74638e-07
8.57443e-31
8.49998e-25
7.94795e-19
6.00539e-13
3.74632e-07
8.57409e-31
8.49966e-25
7.94517e-19
5.99842e-13
3.74048e-07
8.56607e-31
8.49361e-25
7.94048e-19
5.99493e-13
3.73852e-07
8.05989e-31
8.11751e-25
7.65571e-19
5.80034e-13
3.63174e-07
2.15303e-30
1.77834e-24
1.36679e-18
8.09427e-13
3.58314e-07
2.22989e-30
1.83354e-24
1.40627e-18
8.33788e-13
3.69058e-07
2.23094e-30
1.83435e-24
1.40689e-18
8.34225e-13
3.69257e-07
2.22689e-30
1.83244e-24
1.40655e-18
8.34993e-13
3.69859e-07
2.22639e-30
1.83214e-24
1.40641e-18
8.34969e-13
3.69866e-07
2.22296e-30
1.83001e-24
1.40526e-18
8.34629e-13
3.69822e-07
2.2227e-30
1.82985e-24
1.40517e-18
8.34597e-13
3.69815e-07
2.22171e-30
1.82922e-24
1.40481e-18
8.34475e-13
3.69789e-07
2.22163e-30
1.82917e-24
1.40478e-18
8.34463e-13
3.69786e-07
2.22144e-30
1.82905e-24
1.40471e-18
8.34437e-13
3.6978e-07
2.22144e-30
1.82905e-24
1.40471e-18
8.34437e-13
3.6978e-07
2.22163e-30
1.82917e-24
1.40478e-18
8.34463e-13
3.69786e-07
2.22171e-30
1.82922e-24
1.40481e-18
8.34475e-13
3.69789e-07
2.2227e-30
1.82985e-24
1.40517e-18
8.34597e-13
3.69815e-07
2.22296e-30
1.83001e-24
1.40526e-18
8.34629e-13
3.69822e-07
2.22639e-30
1.83214e-24
1.40641e-18
8.34969e-13
3.69866e-07
2.22689e-30
1.83244e-24
1.40655e-18
8.34993e-13
3.69859e-07
2.23094e-30
1.83435e-24
1.40689e-18
8.34225e-13
3.69257e-07
2.22989e-30
1.83354e-24
1.40627e-18
8.33788e-13
3.69058e-07
2.15303e-30
1.77834e-24
1.36679e-18
8.09427e-13
3.58314e-07
4.64686e-30
3.28469e-24
2.13158e-18
1.03362e-12
3.53497e-07
4.75242e-30
3.36085e-24
2.18393e-18
1.06299e-12
3.64305e-07
4.75359e-30
3.36189e-24
2.18474e-18
1.06352e-12
3.64507e-07
4.7407e-30
3.35655e-24
2.18357e-18
1.06439e-12
3.65128e-07
4.73954e-30
3.35597e-24
2.18334e-18
1.06435e-12
3.65135e-07
4.73197e-30
3.35196e-24
2.18152e-18
1.06392e-12
3.65097e-07
4.73143e-30
3.35166e-24
2.18138e-18
1.06388e-12
3.6509e-07
4.72933e-30
3.35052e-24
2.18084e-18
1.06373e-12
3.65066e-07
4.72917e-30
3.35043e-24
2.1808e-18
1.06371e-12
3.65063e-07
4.72878e-30
3.35021e-24
2.18069e-18
1.06368e-12
3.65057e-07
4.72878e-30
3.35021e-24
2.18069e-18
1.06368e-12
3.65057e-07
4.72917e-30
3.35043e-24
2.1808e-18
1.06371e-12
3.65063e-07
4.72933e-30
3.35052e-24
2.18084e-18
1.06373e-12
3.65066e-07
4.73143e-30
3.35166e-24
2.18138e-18
1.06388e-12
3.6509e-07
4.73197e-30
3.35196e-24
2.18152e-18
1.06392e-12
3.65097e-07
4.73954e-30
3.35597e-24
2.18334e-18
1.06435e-12
3.65135e-07
4.7407e-30
3.35655e-24
2.18357e-18
1.06439e-12
3.65128e-07
4.75359e-30
3.36189e-24
2.18474e-18
1.06352e-12
3.64507e-07
4.75242e-30
3.36085e-24
2.18393e-18
1.06299e-12
3.64305e-07
4.64686e-30
3.28469e-24
2.13158e-18
1.03362e-12
3.53497e-07
8.7812e-30
5.43975e-24
3.05421e-18
1.25252e-12
3.48718e-07
8.91503e-30
5.5406e-24
3.12147e-18
1.28701e-12
3.5959e-07
8.91609e-30
5.54189e-24
3.12251e-18
1.28763e-12
3.59794e-07
8.88747e-30
5.5314e-24
3.12036e-18
1.28863e-12
3.60433e-07
8.88521e-30
5.53042e-24
3.12001e-18
1.28859e-12
3.60442e-07
8.87079e-30
5.52374e-24
3.11741e-18
1.28807e-12
3.60408e-07
8.8698e-30
5.52327e-24
3.11722e-18
1.28803e-12
3.60402e-07
8.86589e-30
5.5214e-24
3.11645e-18
1.28784e-12
3.60379e-07
8.86562e-30
5.52126e-24
3.11639e-18
1.28783e-12
3.60376e-07
8.8649e-30
5.52091e-24
3.11624e-18
1.28779e-12
3.60371e-07
8.8649e-30
5.52091e-24
3.11624e-18
1.28779e-12
3.60371e-07
8.86562e-30
5.52126e-24
3.11639e-18
1.28783e-12
3.60376e-07
8.86589e-30
5.5214e-24
3.11645e-18
1.28784e-12
3.60379e-07
8.8698e-30
5.52327e-24
3.11722e-18
1.28803e-12
3.60402e-07
8.87079e-30
5.52374e-24
3.11741e-18
1.28807e-12
3.60408e-07
8.88521e-30
5.53042e-24
3.12001e-18
1.28859e-12
3.60442e-07
8.88747e-30
5.5314e-24
3.12036e-18
1.28863e-12
3.60433e-07
8.91609e-30
5.54189e-24
3.12251e-18
1.28763e-12
3.59794e-07
8.91503e-30
5.5406e-24
3.12147e-18
1.28701e-12
3.5959e-07
8.7812e-30
5.43975e-24
3.05421e-18
1.25252e-12
3.48718e-07
1.51273e-29
8.34711e-24
4.12875e-18
1.46604e-12
3.43974e-07
1.52858e-29
8.477e-24
4.21317e-18
1.50576e-12
3.54908e-07
1.52865e-29
8.47859e-24
4.21449e-18
1.50649e-12
3.55116e-07
1.52328e-29
8.46104e-24
4.21124e-18
1.50765e-12
3.55771e-07
1.52289e-29
8.45952e-24
4.21078e-18
1.5076e-12
3.55781e-07
1.5204e-29
8.44929e-24
4.20729e-18
1.507e-12
3.55753e-07
1.52024e-29
8.44858e-24
4.20703e-18
1.50695e-12
3.55747e-07
1.51957e-29
8.44575e-24
4.20601e-18
1.50674e-12
3.55725e-07
1.51953e-29
8.44555e-24
4.20593e-18
1.50672e-12
3.55722e-07
1.51941e-29
8.44502e-24
4.20573e-18
1.50668e-12
3.55717e-07
1.51941e-29
8.44502e-24
4.20573e-18
1.50668e-12
3.55717e-07
1.51953e-29
8.44555e-24
4.20593e-18
1.50672e-12
3.55722e-07
1.51957e-29
8.44575e-24
4.20601e-18
1.50674e-12
3.55725e-07
1.52024e-29
8.44858e-24
4.20703e-18
1.50695e-12
3.55747e-07
1.5204e-29
8.44929e-24
4.20729e-18
1.507e-12
3.55753e-07
1.52289e-29
8.45952e-24
4.21078e-18
1.5076e-12
3.55781e-07
1.52328e-29
8.46104e-24
4.21124e-18
1.50765e-12
3.55771e-07
1.52865e-29
8.47859e-24
4.21449e-18
1.50649e-12
3.55116e-07
1.52858e-29
8.477e-24
4.21317e-18
1.50576e-12
3.54908e-07
1.51273e-29
8.34711e-24
4.12875e-18
1.46604e-12
3.43974e-07
2.43293e-29
1.21048e-23
5.34914e-18
1.6741e-12
3.39261e-07
2.45055e-29
1.22689e-23
5.45317e-18
1.71915e-12
3.50257e-07
2.45054e-29
1.22709e-23
5.45482e-18
1.71999e-12
3.50467e-07
2.4415e-29
1.22443e-23
5.45043e-18
1.72133e-12
3.51139e-07
2.44086e-29
1.22421e-23
5.44983e-18
1.72129e-12
3.5115e-07
2.43688e-29
1.22273e-23
5.44535e-18
1.72062e-12
3.51127e-07
2.43662e-29
1.22263e-23
5.44502e-18
1.72056e-12
3.51121e-07
2.43557e-29
1.22223e-23
5.44372e-18
1.72033e-12
3.51101e-07
2.4355e-29
1.2222e-23
5.44362e-18
1.7203e-12
3.51098e-07
2.43531e-29
1.22212e-23
5.44338e-18
1.72025e-12
3.51093e-07
2.43531e-29
1.22212e-23
5.44338e-18
1.72025e-12
3.51093e-07
2.4355e-29
1.2222e-23
5.44362e-18
1.7203e-12
3.51098e-07
2.43557e-29
1.22223e-23
5.44372e-18
1.72033e-12
3.51101e-07
2.43662e-29
1.22263e-23
5.44502e-18
1.72056e-12
3.51121e-07
2.43688e-29
1.22273e-23
5.44535e-18
1.72062e-12
3.51127e-07
2.44086e-29
1.22421e-23
5.44983e-18
1.72129e-12
3.5115e-07
2.4415e-29
1.22443e-23
5.45043e-18
1.72133e-12
3.51139e-07
2.45054e-29
1.22709e-23
5.45482e-18
1.71999e-12
3.50467e-07
2.45055e-29
1.22689e-23
5.45317e-18
1.71915e-12
3.50256e-07
2.43293e-29
1.21048e-23
5.34914e-18
1.6741e-12
3.39261e-07
3.70986e-29
1.68053e-23
6.70917e-18
1.87661e-12
3.34575e-07
3.72827e-29
1.70098e-23
6.83544e-18
1.9271e-12
3.45632e-07
3.72814e-29
1.70123e-23
6.83749e-18
1.92805e-12
3.45845e-07
3.71399e-29
1.69745e-23
6.83195e-18
1.92962e-12
3.46533e-07
3.71303e-29
1.69715e-23
6.83122e-18
1.92957e-12
3.46544e-07
3.70699e-29
1.69512e-23
6.82568e-18
1.92884e-12
3.46526e-07
3.7066e-29
1.69498e-23
6.82527e-18
1.92877e-12
3.46521e-07
3.70502e-29
1.69443e-23
6.82367e-18
1.92852e-12
3.46502e-07
3.70492e-29
1.69439e-23
6.82355e-18
1.92849e-12
3.46499e-07
3.70464e-29
1.69429e-23
6.82324e-18
1.92844e-12
3.46494e-07
3.70464e-29
1.69429e-23
6.82324e-18
1.92844e-12
3.46494e-07
3.70492e-29
1.69439e-23
6.82355e-18
1.92849e-12
3.46499e-07
3.70502e-29
1.69443e-23
6.82367e-18
1.92852e-12
3.46502e-07
3.7066e-29
1.69498e-23
6.82527e-18
1.92877e-12
3.46521e-07
3.70699e-29
1.69512e-23
6.82568e-18
1.92884e-12
3.46526e-07
3.71303e-29
1.69715e-23
6.83122e-18
1.92957e-12
3.46544e-07
3.71399e-29
1.69745e-23
6.83195e-18
1.92962e-12
3.46533e-07
3.72814e-29
1.70123e-23
6.83749e-18
1.92805e-12
3.45845e-07
3.72827e-29
1.70098e-23
6.83544e-18
1.9271e-12
3.45631e-07
3.70986e-29
1.68053e-23
6.70917e-18
1.87661e-12
3.34575e-07
5.42092e-29
2.25348e-23
8.20247e-18
2.07348e-12
3.29913e-07
5.43888e-29
2.27874e-23
8.35382e-18
2.12952e-12
3.41029e-07
5.4386e-29
2.27906e-23
8.35635e-18
2.13059e-12
3.41245e-07
5.41765e-29
2.27396e-23
8.34972e-18
2.1324e-12
3.41949e-07
5.41626e-29
2.27356e-23
8.34884e-18
2.13235e-12
3.41961e-07
5.40752e-29
2.27086e-23
8.34217e-18
2.13157e-12
3.41948e-07
5.40696e-29
2.27068e-23
8.34168e-18
2.1315e-12
3.41943e-07
5.40469e-29
2.26995e-23
8.33976e-18
2.13122e-12
3.41925e-07
5.40454e-29
2.2699e-23
8.33961e-18
2.1312e-12
3.41922e-07
5.40414e-29
2.26977e-23
8.33925e-18
2.13114e-12
3.41918e-07
5.40414e-29
2.26977e-23
8.33925e-18
2.13114e-12
3.41918e-07
5.40454e-29
2.2699e-23
8.33961e-18
2.1312e-12
3.41922e-07
5.40469e-29
2.26995e-23
8.33976e-18
2.13122e-12
3.41925e-07
5.40696e-29
2.27068e-23
8.34168e-18
2.1315e-12
3.41943e-07
5.40752e-29
2.27086e-23
8.34217e-18
2.13157e-12
3.41948e-07
5.41626e-29
2.27356e-23
8.34884e-18
2.13235e-12
3.41961e-07
5.41765e-29
2.27396e-23
8.34972e-18
2.1324e-12
3.41949e-07
5.4386e-29
2.27906e-23
8.35635e-18
2.13059e-12
3.41245e-07
5.43888e-29
2.27874e-23
8.35382e-18
2.12952e-12
3.41029e-07
5.42092e-29
2.25348e-23
8.20247e-18
2.07348e-12
3.29913e-07
7.64914e-29
2.93739e-23
9.82251e-18
2.26462e-12
3.25267e-07
7.66528e-29
2.96838e-23
1.0002e-17
2.32633e-12
3.36443e-07
7.66482e-29
2.96879e-23
1.00051e-17
2.32752e-12
3.36661e-07
7.63515e-29
2.96216e-23
9.99748e-18
2.32961e-12
3.3738e-07
7.63322e-29
2.96165e-23
9.99646e-18
2.32956e-12
3.37394e-07
7.621e-29
2.95817e-23
9.98861e-18
2.32874e-12
3.37385e-07
7.62022e-29
2.95794e-23
9.98804e-18
2.32866e-12
3.3738e-07
7.61707e-29
2.95701e-23
9.98577e-18
2.32836e-12
3.37363e-07
7.61687e-29
2.95694e-23
9.9856e-18
2.32833e-12
3.37361e-07
7.61631e-29
2.95677e-23
9.98518e-18
2.32827e-12
3.37356e-07
7.61631e-29
2.95677e-23
9.98518e-18
2.32827e-12
3.37356e-07
7.61687e-29
2.95694e-23
9.9856e-18
2.32833e-12
3.37361e-07
7.61707e-29
2.95701e-23
9.98577e-18
2.32836e-12
3.37363e-07
7.62022e-29
2.95794e-23
9.98804e-18
2.32866e-12
3.3738e-07
7.621e-29
2.95817e-23
9.98861e-18
2.32874e-12
3.37385e-07
7.63322e-29
2.96165e-23
9.99646e-18
2.32956e-12
3.37394e-07
7.63515e-29
2.96216e-23
9.99748e-18
2.32961e-12
3.3738e-07
7.66482e-29
2.96879e-23
1.00051e-17
2.32752e-12
3.36661e-07
7.66528e-29
2.96837e-23
1.0002e-17
2.32633e-12
3.36443e-07
7.64914e-29
2.93739e-23
9.82251e-18
2.26462e-12
3.25267e-07
1.04826e-28
3.73964e-23
1.15626e-17
2.44995e-12
3.20615e-07
1.04956e-28
3.77747e-23
1.17735e-17
2.51743e-12
3.3185e-07
1.04949e-28
3.77801e-23
1.17773e-17
2.51874e-12
3.32071e-07
1.04544e-28
3.76967e-23
1.17688e-17
2.52114e-12
3.32805e-07
1.04518e-28
3.76903e-23
1.17677e-17
2.52109e-12
3.32819e-07
1.04352e-28
3.76467e-23
1.17586e-17
2.52023e-12
3.32815e-07
1.04342e-28
3.76438e-23
1.17579e-17
2.52015e-12
3.3281e-07
1.04299e-28
3.76321e-23
1.17553e-17
2.51984e-12
3.32795e-07
1.04296e-28
3.76313e-23
1.17551e-17
2.51981e-12
3.32792e-07
1.04289e-28
3.76292e-23
1.17546e-17
2.51974e-12
3.32788e-07
1.04289e-28
3.76292e-23
1.17546e-17
2.51974e-12
3.32788e-07
1.04296e-28
3.76313e-23
1.17551e-17
2.51981e-12
3.32792e-07
1.04299e-28
3.76321e-23
1.17553e-17
2.51984e-12
3.32795e-07
1.04342e-28
3.76438e-23
1.17579e-17
2.52015e-12
3.3281e-07
1.04352e-28
3.76467e-23
1.17586e-17
2.52023e-12
3.32815e-07
1.04518e-28
3.76903e-23
1.17677e-17
2.52109e-12
3.32819e-07
1.04544e-28
3.76967e-23
1.17688e-17
2.52114e-12
3.32805e-07
1.04949e-28
3.77801e-23
1.17773e-17
2.51874e-12
3.32071e-07
1.04956e-28
3.77747e-23
1.17735e-17
2.51742e-12
3.3185e-07
1.04826e-28
3.73964e-23
1.15626e-17
2.44995e-12
3.20615e-07
-7.46783e-08
-4.13926e-09
-4.67414e-11
-1.11972e-13
-5.02455e-17
7.89102e-19
7.97592e-19
7.97924e-19
7.98006e-19
7.98021e-19
7.98083e-19
7.98221e-19
7.99123e-19
8.00439e-19
8.12472e-19
8.24322e-19
9.56405e-19
1.03603e-18
3.07956e-18
3.61749e-18
-8.47015e-08
-4.72183e-09
-5.45853e-11
-1.34282e-13
-6.22171e-17
7.87865e-19
7.97579e-19
7.97916e-19
7.97997e-19
7.98005e-19
7.98008e-19
7.98125e-19
7.99039e-19
8.00372e-19
8.12564e-19
8.24528e-19
9.57966e-19
1.03806e-18
3.101e-18
3.64336e-18
-8.49825e-08
-4.73598e-09
-5.47431e-11
-1.34685e-13
-6.24252e-17
7.87844e-19
7.9758e-19
7.97917e-19
7.97998e-19
7.98006e-19
7.98009e-19
7.9813e-19
7.99046e-19
8.0038e-19
8.12575e-19
8.24541e-19
9.58e-19
1.0381e-18
3.10121e-18
3.64356e-18
-8.59744e-08
-4.78465e-09
-5.52421e-11
-1.3586e-13
-6.30013e-17
7.87787e-19
7.97581e-19
7.97918e-19
7.97999e-19
7.98007e-19
7.9802e-19
7.98155e-19
7.99073e-19
8.00409e-19
8.12612e-19
8.24583e-19
9.58094e-19
1.0382e-18
3.10175e-18
3.64406e-18
-8.60124e-08
-4.78631e-09
-5.52572e-11
-1.35892e-13
-6.30159e-17
7.87786e-19
7.97581e-19
7.97918e-19
7.97999e-19
7.98007e-19
7.9802e-19
7.98156e-19
7.99074e-19
8.0041e-19
8.12613e-19
8.24585e-19
9.58097e-19
1.0382e-18
3.10176e-18
3.64407e-18
-8.6097e-08
-4.78951e-09
-5.52834e-11
-1.35943e-13
-6.30373e-17
7.87784e-19
7.97581e-19
7.97918e-19
7.97999e-19
7.98007e-19
7.98021e-19
7.98157e-19
7.99075e-19
8.00411e-19
8.12615e-19
8.24586e-19
9.58101e-19
1.03821e-18
3.10178e-18
3.64408e-18
-8.61009e-08
-4.78958e-09
-5.52833e-11
-1.35941e-13
-6.30363e-17
7.87784e-19
7.97581e-19
7.97918e-19
7.97999e-19
7.98007e-19
7.98021e-19
7.98157e-19
7.99075e-19
8.00411e-19
8.12615e-19
8.24587e-19
9.58101e-19
1.03821e-18
3.10178e-18
3.64408e-18
-8.61098e-08
-4.78971e-09
-5.5283e-11
-1.35938e-13
-6.30344e-17
7.87784e-19
7.97581e-19
7.97918e-19
7.97999e-19
7.98007e-19
7.98021e-19
7.98157e-19
7.99076e-19
8.00411e-19
8.12615e-19
8.24587e-19
9.58101e-19
1.03821e-18
3.10178e-18
3.64408e-18
-8.61096e-08
-4.78966e-09
-5.52822e-11
-1.35936e-13
-6.30333e-17
7.87784e-19
7.97581e-19
7.97918e-19
7.97999e-19
7.98007e-19
7.98021e-19
7.98157e-19
7.99076e-19
8.00411e-19
8.12615e-19
8.24587e-19
9.58101e-19
1.03821e-18
3.10178e-18
3.64408e-18
-8.61103e-08
-4.78963e-09
-5.52815e-11
-1.35934e-13
-6.30325e-17
7.87784e-19
7.97581e-19
7.97918e-19
7.97999e-19
7.98007e-19
7.98021e-19
7.98157e-19
7.99076e-19
8.00411e-19
8.12615e-19
8.24587e-19
9.58101e-19
1.03821e-18
3.10178e-18
3.64408e-18
-8.61103e-08
-4.78963e-09
-5.52815e-11
-1.35934e-13
-6.30325e-17
7.87784e-19
7.97581e-19
7.97918e-19
7.97999e-19
7.98007e-19
7.98021e-19
7.98157e-19
7.99076e-19
8.00411e-19
8.12615e-19
8.24587e-19
9.58101e-19
1.03821e-18
3.10178e-18
3.64408e-18
-8.61096e-08
-4.78966e-09
-5.52822e-11
-1.35936e-13
-6.30333e-17
7.87784e-19
7.97581e-19
7.97918e-19
7.97999e-19
7.98007e-19
7.98021e-19
7.98157e-19
7.99076e-19
8.00411e-19
8.12615e-19
8.24587e-19
9.58101e-19
1.03821e-18
3.10178e-18
3.64408e-18
-8.61098e-08
-4.78971e-09
-5.5283e-11
-1.35938e-13
-6.30344e-17
7.87784e-19
7.97581e-19
7.97918e-19
7.97999e-19
7.98007e-19
7.98021e-19
7.98157e-19
7.99076e-19
8.00411e-19
8.12615e-19
8.24587e-19
9.58101e-19
1.03821e-18
3.10178e-18
3.64408e-18
-8.61009e-08
-4.78958e-09
-5.52833e-11
-1.35941e-13
-6.30363e-17
7.87784e-19
7.97581e-19
7.97918e-19
7.97999e-19
7.98007e-19
7.98021e-19
7.98157e-19
7.99075e-19
8.00411e-19
8.12615e-19
8.24587e-19
9.58101e-19
1.03821e-18
3.10178e-18
3.64408e-18
-8.6097e-08
-4.78951e-09
-5.52834e-11
-1.35943e-13
-6.30373e-17
7.87784e-19
7.97581e-19
7.97918e-19
7.97999e-19
7.98007e-19
7.98021e-19
7.98157e-19
7.99075e-19
8.00411e-19
8.12615e-19
8.24586e-19
9.58101e-19
1.03821e-18
3.10178e-18
3.64408e-18
-8.60124e-08
-4.78631e-09
-5.52572e-11
-1.35892e-13
-6.30159e-17
7.87786e-19
7.97581e-19
7.97918e-19
7.97999e-19
7.98007e-19
7.9802e-19
7.98156e-19
7.99074e-19
8.0041e-19
8.12613e-19
8.24585e-19
9.58097e-19
1.0382e-18
3.10176e-18
3.64407e-18
-8.59744e-08
-4.78465e-09
-5.52421e-11
-1.3586e-13
-6.30013e-17
7.87787e-19
7.97581e-19
7.97918e-19
7.97999e-19
7.98007e-19
7.9802e-19
7.98155e-19
7.99073e-19
8.00409e-19
8.12612e-19
8.24583e-19
9.58094e-19
1.0382e-18
3.10175e-18
3.64406e-18
-8.49825e-08
-4.73598e-09
-5.47431e-11
-1.34685e-13
-6.24252e-17
7.87844e-19
7.9758e-19
7.97917e-19
7.97998e-19
7.98006e-19
7.98009e-19
7.9813e-19
7.99046e-19
8.0038e-19
8.12575e-19
8.24541e-19
9.58e-19
1.0381e-18
3.10121e-18
3.64356e-18
-8.47015e-08
-4.72183e-09
-5.45853e-11
-1.34282e-13
-6.22171e-17
7.87865e-19
7.97579e-19
7.97916e-19
7.97997e-19
7.98005e-19
7.98008e-19
7.98125e-19
7.99039e-19
8.00372e-19
8.12564e-19
8.24528e-19
9.57966e-19
1.03806e-18
3.101e-18
3.64336e-18
-7.46783e-08
-4.13926e-09
-4.67414e-11
-1.11972e-13
-5.02455e-17
7.89102e-19
7.97592e-19
7.97924e-19
7.98006e-19
7.98021e-19
7.98083e-19
7.98221e-19
7.99123e-19