/*--------------------------------*- C++ -*----------------------------------*\
  =========                 |
  \\      /  F ield         | OpenFOAM: The Open Source CFD Toolbox
   \\    /   O peration     | Website:  https://openfoam.org
    \\  /    A nd           | Version:  8
     \\/     M anipulation  |
\*---------------------------------------------------------------------------*/
FoamFile
{
    version     2.0;
    format      ascii;
    class       volScalarField;
    location    "1.1";
    object      p;
}
// * * * * * * * * * * * * * * * * * * * * * * * * * * * * * * * * * * * * * //

dimensions      [0 2 -2 0 0 0 0];

internalField   nonuniform List<scalar> 
180000
(
0.00115309
0.00107453
0.00113297
0.000947128
0.00105301
0.00113883
0.00106061
0.00111871
0.000934508
0.00103896
0.00113842
0.00106022
0.0011183
0.000934175
0.00103857
0.00113587
0.00105776
0.00111576
0.000932049
0.00103619
0.00113574
0.00105764
0.00111563
0.000931941
0.00103607
0.00113514
0.00105706
0.00111503
0.000931441
0.00103551
0.00113511
0.00105702
0.00111499
0.00093141
0.00103547
0.00113497
0.00105689
0.00111485
0.000931292
0.00103534
0.00113496
0.00105688
0.00111484
0.000931286
0.00103533
0.00113494
0.00105686
0.00111482
0.000931265
0.00103531
0.00113494
0.00105686
0.00111482
0.000931265
0.00103531
0.00113496
0.00105688
0.00111484
0.000931286
0.00103533
0.00113497
0.00105689
0.00111485
0.000931292
0.00103534
0.00113511
0.00105702
0.00111499
0.00093141
0.00103547
0.00113514
0.00105706
0.00111503
0.000931441
0.00103551
0.00113574
0.00105764
0.00111563
0.000931941
0.00103607
0.00113587
0.00105776
0.00111576
0.000932049
0.00103619
0.00113842
0.00106022
0.0011183
0.000934175
0.00103857
0.00113883
0.00106061
0.00111871
0.000934508
0.00103896
0.00115309
0.00107453
0.00113297
0.000947128
0.00105301
0.000807168
0.000792285
0.000804409
0.000752708
0.000787589
0.000805002
0.000788942
0.00080193
0.000747881
0.00078386
0.000804939
0.000788847
0.000801858
0.000747753
0.000783757
0.000804504
0.000788208
0.000801366
0.000746895
0.000783077
0.000804482
0.000788175
0.000801341
0.000746851
0.000783042
0.000804376
0.000788021
0.00080122
0.000746646
0.000782877
0.000804369
0.000788012
0.000801213
0.000746634
0.000782867
0.000804344
0.000787975
0.000801184
0.000746585
0.000782827
0.000804342
0.000787973
0.000801183
0.000746582
0.000782825
0.000804338
0.000787967
0.000801178
0.000746573
0.000782818
0.000804338
0.000787967
0.000801178
0.000746573
0.000782818
0.000804342
0.000787973
0.000801183
0.000746582
0.000782825
0.000804344
0.000787975
0.000801184
0.000746585
0.000782827
0.000804369
0.000788012
0.000801213
0.000746634
0.000782867
0.000804376
0.000788021
0.00080122
0.000746646
0.000782877
0.000804482
0.000788175
0.000801341
0.000746851
0.000783042
0.000804504
0.000788208
0.000801366
0.000746895
0.000783077
0.000804939
0.000788847
0.000801858
0.000747753
0.000783757
0.000805002
0.000788942
0.00080193
0.000747881
0.00078386
0.000807168
0.000792285
0.000804409
0.000752708
0.000787589
0.000597472
0.000579916
0.000594233
0.000542359
0.000578348
0.000594658
0.000576451
0.000591228
0.000538299
0.000574662
0.000594578
0.000576355
0.000591142
0.000538193
0.000574562
0.000594015
0.000575683
0.000590545
0.00053745
0.000573875
0.000593986
0.00057565
0.000590515
0.000537413
0.00057384
0.000593849
0.000575487
0.000590368
0.000537235
0.000573673
0.000593841
0.000575478
0.00059036
0.000537224
0.000573663
0.000593808
0.000575439
0.000590325
0.000537181
0.000573623
0.000593806
0.000575436
0.000590323
0.000537179
0.000573621
0.0005938
0.000575429
0.000590316
0.000537171
0.000573613
0.0005938
0.000575429
0.000590316
0.000537171
0.000573613
0.000593806
0.000575436
0.000590323
0.000537179
0.000573621
0.000593808
0.000575439
0.000590325
0.000537181
0.000573623
0.000593841
0.000575478
0.00059036
0.000537224
0.000573663
0.000593849
0.000575487
0.000590368
0.000537235
0.000573673
0.000593986
0.00057565
0.000590515
0.000537413
0.00057384
0.000594015
0.000575683
0.000590545
0.00053745
0.000573875
0.000594578
0.000576355
0.000591142
0.000538193
0.000574562
0.000594658
0.000576451
0.000591228
0.000538299
0.000574662
0.000597472
0.000579916
0.000594233
0.000542359
0.000578348
0.000593225
0.000563962
0.000587161
0.000512075
0.000563288
0.000588117
0.000558727
0.000581998
0.000506978
0.000557965
0.000587969
0.000558579
0.000581849
0.000506843
0.000557819
0.000586986
0.000557582
0.000580855
0.000505909
0.000556837
0.000586936
0.000557532
0.000580804
0.000505863
0.000556786
0.0005867
0.000557292
0.000580564
0.000505638
0.000556549
0.000586686
0.000557278
0.00058055
0.000505625
0.000556534
0.000586629
0.000557221
0.000580493
0.000505571
0.000556477
0.000586626
0.000557218
0.00058049
0.000505568
0.000556474
0.000586616
0.000557208
0.00058048
0.000505558
0.000556464
0.000586616
0.000557208
0.00058048
0.000505558
0.000556464
0.000586626
0.000557218
0.00058049
0.000505568
0.000556474
0.000586629
0.000557221
0.000580493
0.000505571
0.000556477
0.000586686
0.000557278
0.00058055
0.000505625
0.000556534
0.0005867
0.000557292
0.000580564
0.000505638
0.000556549
0.000586936
0.000557532
0.000580804
0.000505863
0.000556786
0.000586986
0.000557582
0.000580855
0.000505909
0.000556837
0.000587969
0.000558579
0.000581849
0.000506843
0.000557819
0.000588117
0.000558727
0.000581998
0.000506978
0.000557965
0.000593225
0.000563962
0.000587161
0.000512075
0.000563288
0.000622193
0.000591566
0.00061621
0.000536656
0.000593895
0.000616881
0.000586106
0.000610841
0.000531307
0.000588386
0.000616725
0.00058595
0.000610685
0.000531164
0.000588232
0.000615683
0.00058489
0.000609631
0.000530165
0.000587191
0.00061563
0.000584837
0.000609577
0.000530116
0.000587138
0.000615378
0.000584581
0.000609322
0.000529875
0.000586885
0.000615363
0.000584566
0.000609306
0.000529861
0.00058687
0.000615303
0.000584505
0.000609245
0.000529802
0.000586809
0.0006153
0.000584502
0.000609242
0.000529799
0.000586806
0.000615289
0.000584491
0.000609231
0.000529789
0.000586795
0.000615289
0.000584491
0.000609231
0.000529789
0.000586795
0.0006153
0.000584502
0.000609242
0.000529799
0.000586806
0.000615303
0.000584505
0.000609245
0.000529802
0.000586809
0.000615363
0.000584566
0.000609306
0.000529861
0.00058687
0.000615378
0.000584581
0.000609322
0.000529875
0.000586885
0.00061563
0.000584837
0.000609577
0.000530116
0.000587138
0.000615683
0.00058489
0.000609631
0.000530165
0.000587191
0.000616725
0.00058595
0.000610685
0.000531164
0.000588232
0.000616881
0.000586106
0.000610841
0.000531307
0.000588386
0.000622193
0.000591566
0.00061621
0.000536656
0.000593895
0.000630941
0.000602219
0.000625899
0.00054929
0.000608758
0.000626037
0.000597088
0.000620922
0.000544148
0.000603605
0.000625893
0.000596941
0.000620777
0.000544009
0.000603459
0.0006249
0.000595916
0.000619769
0.000543023
0.000602451
0.00062485
0.000595865
0.000619719
0.000542974
0.000602399
0.000624609
0.000595616
0.000619473
0.000542736
0.000602153
0.000624595
0.000595602
0.000619458
0.000542721
0.000602138
0.000624536
0.000595542
0.000619399
0.000542663
0.000602079
0.000624533
0.000595538
0.000619396
0.00054266
0.000602076
0.000624523
0.000595528
0.000619385
0.00054265
0.000602065
0.000624523
0.000595528
0.000619385
0.00054265
0.000602065
0.000624533
0.000595538
0.000619396
0.00054266
0.000602076
0.000624536
0.000595542
0.000619399
0.000542663
0.000602079
0.000624595
0.000595602
0.000619458
0.000542721
0.000602138
0.000624609
0.000595616
0.000619473
0.000542736
0.000602153
0.00062485
0.000595865
0.000619719
0.000542974
0.000602399
0.0006249
0.000595916
0.000619769
0.000543023
0.000602451
0.000625893
0.000596941
0.000620777
0.000544009
0.000603459
0.000626037
0.000597088
0.000620922
0.000544148
0.000603605
0.000630941
0.000602219
0.000625899
0.00054929
0.000608758
0.000627946
0.000600364
0.000623607
0.000549057
0.000611314
0.000623284
0.000595465
0.000618875
0.000544116
0.000606425
0.000623145
0.000595324
0.000618735
0.000543982
0.000606285
0.000622176
0.000594319
0.000617751
0.000543009
0.000605297
0.000622128
0.00059427
0.000617702
0.000542962
0.000605247
0.00062189
0.000594024
0.00061746
0.000542725
0.000605005
0.000621876
0.00059401
0.000617445
0.000542711
0.00060499
0.000621819
0.000593951
0.000617387
0.000542653
0.000604931
0.000621816
0.000593947
0.000617383
0.00054265
0.000604928
0.000621805
0.000593937
0.000617373
0.000542639
0.000604917
0.000621805
0.000593937
0.000617373
0.000542639
0.000604917
0.000621816
0.000593947
0.000617383
0.00054265
0.000604928
0.000621819
0.000593951
0.000617387
0.000542653
0.000604931
0.000621876
0.00059401
0.000617445
0.000542711
0.00060499
0.00062189
0.000594024
0.00061746
0.000542725
0.000605005
0.000622128
0.00059427
0.000617702
0.000542962
0.000605247
0.000622176
0.000594319
0.000617751
0.000543009
0.000605297
0.000623145
0.000595324
0.000618735
0.000543982
0.000606285
0.000623284
0.000595465
0.000618875
0.000544116
0.000606425
0.000627946
0.000600364
0.000623607
0.000549057
0.000611314
0.000624585
0.000597308
0.000620714
0.000546654
0.000612359
0.000620002
0.000592506
0.00061607
0.000541823
0.0006076
0.000619866
0.000592367
0.000615932
0.000541692
0.000607463
0.000618892
0.00059136
0.000614945
0.000540719
0.000606473
0.000618844
0.000591311
0.000614896
0.000540672
0.000606424
0.000618604
0.000591064
0.000614651
0.000540434
0.000606179
0.00061859
0.00059105
0.000614637
0.00054042
0.000606165
0.000618531
0.000590989
0.000614577
0.000540361
0.000606105
0.000618528
0.000590986
0.000614574
0.000540358
0.000606101
0.000618518
0.000590975
0.000614563
0.000540347
0.000606091
0.000618518
0.000590975
0.000614563
0.000540347
0.000606091
0.000618528
0.000590986
0.000614574
0.000540358
0.000606101
0.000618531
0.000590989
0.000614577
0.000540361
0.000606105
0.00061859
0.00059105
0.000614637
0.00054042
0.000606165
0.000618604
0.000591064
0.000614651
0.000540434
0.000606179
0.000618844
0.000591311
0.000614896
0.000540672
0.000606424
0.000618892
0.00059136
0.000614945
0.000540719
0.000606473
0.000619866
0.000592367
0.000615932
0.000541692
0.000607463
0.000620002
0.000592506
0.00061607
0.000541823
0.0006076
0.000624585
0.000597308
0.000620714
0.000546654
0.000612359
0.000623107
0.000595999
0.000619661
0.000545821
0.000614636
0.00061858
0.000591267
0.00061508
0.000541071
0.000609968
0.000618445
0.00059113
0.000614944
0.000540941
0.000609832
0.000617463
0.000590117
0.000613949
0.000539964
0.000608837
0.000617415
0.000590068
0.0006139
0.000539917
0.000608787
0.000617171
0.000589818
0.000613652
0.000539676
0.00060854
0.000617157
0.000589804
0.000613638
0.000539662
0.000608525
0.000617098
0.000589742
0.000613577
0.000539603
0.000608464
0.000617094
0.000589739
0.000613574
0.0005396
0.000608461
0.000617083
0.000589728
0.000613563
0.000539589
0.00060845
0.000617083
0.000589728
0.000613563
0.000539589
0.00060845
0.000617094
0.000589739
0.000613574
0.0005396
0.000608461
0.000617098
0.000589742
0.000613577
0.000539603
0.000608464
0.000617157
0.000589804
0.000613638
0.000539662
0.000608525
0.000617171
0.000589818
0.000613652
0.000539676
0.00060854
0.000617415
0.000590068
0.0006139
0.000539917
0.000608787
0.000617463
0.000590117
0.000613949
0.000539964
0.000608837
0.000618445
0.00059113
0.000614944
0.000540941
0.000609832
0.00061858
0.000591267
0.00061508
0.000541071
0.000609968
0.000623107
0.000595999
0.000619661
0.000545821
0.000614636
0.000622332
0.000595493
0.000619328
0.000545974
0.000617111
0.000617882
0.000590845
0.000614829
0.000541308
0.000612532
0.000617748
0.00059071
0.000614694
0.00054118
0.000612397
0.000616763
0.000589694
0.000613697
0.0005402
0.000611398
0.000616714
0.000589645
0.000613647
0.000540152
0.000611348
0.000616468
0.000589393
0.000613398
0.00053991
0.000611098
0.000616454
0.000589379
0.000613383
0.000539896
0.000611083
0.000616394
0.000589317
0.000613322
0.000539836
0.000611022
0.000616391
0.000589313
0.000613318
0.000539832
0.000611018
0.000616379
0.000589302
0.000613307
0.000539821
0.000611007
0.000616379
0.000589302
0.000613307
0.000539821
0.000611007
0.000616391
0.000589313
0.000613318
0.000539832
0.000611018
0.000616394
0.000589317
0.000613322
0.000539836
0.000611022
0.000616454
0.000589379
0.000613383
0.000539896
0.000611083
0.000616468
0.000589393
0.000613398
0.00053991
0.000611098
0.000616714
0.000589645
0.000613647
0.000540152
0.000611348
0.000616763
0.000589694
0.000613697
0.0005402
0.000611398
0.000617748
0.00059071
0.000614694
0.00054118
0.000612397
0.000617882
0.000590845
0.000614829
0.000541308
0.000612532
0.000622332
0.000595493
0.000619328
0.000545974
0.000617111
0.000621486
0.000594965
0.000618924
0.000546248
0.000618742
0.00061712
0.000590409
0.000614514
0.000541671
0.000614234
0.000616989
0.000590276
0.000614382
0.000541544
0.0006141
0.000616002
0.000589259
0.000613384
0.000540562
0.000613096
0.000615954
0.000589211
0.000613335
0.000540515
0.000613046
0.000615706
0.000588957
0.000613083
0.000540271
0.000612794
0.000615692
0.000588942
0.000613068
0.000540257
0.000612779
0.000615631
0.00058888
0.000613006
0.000540196
0.000612716
0.000615628
0.000588876
0.000613003
0.000540193
0.000612713
0.000615616
0.000588865
0.000612991
0.000540181
0.000612701
0.000615616
0.000588865
0.000612991
0.000540181
0.000612701
0.000615628
0.000588876
0.000613003
0.000540193
0.000612713
0.000615631
0.00058888
0.000613006
0.000540196
0.000612716
0.000615692
0.000588942
0.000613068
0.000540257
0.000612779
0.000615706
0.000588957
0.000613083
0.000540271
0.000612794
0.000615954
0.000589211
0.000613335
0.000540515
0.000613046
0.000616002
0.000589259
0.000613384
0.000540562
0.000613096
0.000616989
0.000590276
0.000614382
0.000541544
0.0006141
0.00061712
0.000590409
0.000614514
0.000541671
0.000614234
0.000621486
0.000594965
0.000618924
0.000546248
0.000618742
0.000620512
0.000594302
0.000618374
0.000546388
0.000616945
0.000616229
0.000589835
0.000614053
0.000541899
0.000612512
0.0006161
0.000589704
0.000613923
0.000541774
0.00061238
0.000615112
0.000588688
0.000612924
0.000540791
0.000611375
0.000615064
0.000588639
0.000612875
0.000540744
0.000611325
0.000614815
0.000588384
0.000612622
0.000540498
0.000611071
0.0006148
0.000588369
0.000612608
0.000540484
0.000611056
0.000614738
0.000588306
0.000612544
0.000540423
0.000610992
0.000614735
0.000588302
0.000612541
0.000540419
0.000610989
0.000614724
0.000588291
0.000612529
0.000540408
0.000610977
0.000614724
0.000588291
0.000612529
0.000540408
0.000610977
0.000614735
0.000588302
0.000612541
0.000540419
0.000610989
0.000614738
0.000588306
0.000612544
0.000540423
0.000610992
0.0006148
0.000588369
0.000612608
0.000540484
0.000611056
0.000614815
0.000588384
0.000612622
0.000540498
0.000611071
0.000615064
0.000588639
0.000612875
0.000540744
0.000611325
0.000615112
0.000588688
0.000612924
0.000540791
0.000611375
0.0006161
0.000589704
0.000613923
0.000541774
0.00061238
0.000616229
0.000589835
0.000614053
0.000541899
0.000612512
0.000620512
0.000594302
0.000618374
0.000546388
0.000616945
0.000619525
0.000593607
0.000617793
0.000546386
0.000614177
0.000615321
0.000589226
0.000613556
0.000541982
0.00060982
0.000615193
0.000589098
0.000613428
0.00054186
0.000609691
0.000614205
0.000588081
0.000612428
0.000540876
0.000608685
0.000614157
0.000588033
0.00061238
0.000540829
0.000608635
0.000613906
0.000587776
0.000612125
0.000540582
0.000608379
0.000613891
0.000587761
0.00061211
0.000540567
0.000608364
0.000613829
0.000587697
0.000612046
0.000540505
0.0006083
0.000613825
0.000587694
0.000612043
0.000540502
0.000608297
0.000613814
0.000587682
0.000612031
0.00054049
0.000608285
0.000613814
0.000587682
0.000612031
0.00054049
0.000608285
0.000613825
0.000587694
0.000612043
0.000540502
0.000608297
0.000613829
0.000587697
0.000612046
0.000540505
0.0006083
0.000613891
0.000587761
0.00061211
0.000540567
0.000608364
0.000613906
0.000587776
0.000612125
0.000540582
0.000608379
0.000614157
0.000588033
0.00061238
0.000540829
0.000608635
0.000614205
0.000588081
0.000612428
0.000540876
0.000608685
0.000615193
0.000589098
0.000613428
0.00054186
0.000609691
0.000615321
0.000589226
0.000613556
0.000541982
0.00060982
0.000619525
0.000593607
0.000617793
0.000546386
0.000614177
0.00061857
0.000592936
0.000617229
0.000546286
0.000611695
0.000614443
0.000588639
0.000613074
0.000541966
0.000607413
0.000614318
0.000588512
0.000612948
0.000541845
0.000607286
0.000613328
0.000587495
0.000611948
0.000540861
0.00060628
0.000613281
0.000587447
0.0006119
0.000540815
0.000606231
0.000613028
0.000587189
0.000611643
0.000540566
0.000605973
0.000613013
0.000587175
0.000611628
0.000540552
0.000605958
0.00061295
0.00058711
0.000611564
0.000540489
0.000605893
0.000612947
0.000587106
0.00061156
0.000540486
0.00060589
0.000612935
0.000587094
0.000611548
0.000540474
0.000605878
0.000612935
0.000587094
0.000611548
0.000540474
0.000605878
0.000612947
0.000587106
0.00061156
0.000540486
0.00060589
0.00061295
0.00058711
0.000611564
0.000540489
0.000605893
0.000613013
0.000587174
0.000611628
0.000540552
0.000605958
0.000613028
0.000587189
0.000611643
0.000540566
0.000605973
0.000613281
0.000587447
0.0006119
0.000540815
0.000606231
0.000613328
0.000587495
0.000611948
0.000540861
0.00060628
0.000614318
0.000588512
0.000612948
0.000541845
0.000607286
0.000614443
0.000588639
0.000613074
0.000541966
0.000607413
0.00061857
0.000592936
0.000617229
0.000546286
0.000611695
0.000617645
0.000592289
0.000616681
0.000546107
0.000609497
0.000613593
0.000588073
0.000612606
0.000541869
0.000605287
0.000613469
0.000587948
0.000612482
0.00054175
0.000605162
0.00061248
0.000586932
0.000611483
0.000540766
0.000604157
0.000612433
0.000586884
0.000611435
0.00054072
0.000604108
0.000612178
0.000586624
0.000611177
0.00054047
0.000603849
0.000612164
0.00058661
0.000611162
0.000540456
0.000603834
0.000612099
0.000586544
0.000611097
0.000540393
0.000603769
0.000612096
0.000586541
0.000611093
0.000540389
0.000603765
0.000612084
0.000586529
0.000611081
0.000540377
0.000603753
0.000612084
0.000586529
0.000611081
0.000540377
0.000603753
0.000612096
0.000586541
0.000611093
0.000540389
0.000603765
0.000612099
0.000586544
0.000611097
0.000540393
0.000603769
0.000612164
0.00058661
0.000611162
0.000540456
0.000603834
0.000612178
0.000586624
0.000611177
0.00054047
0.000603849
0.000612433
0.000586884
0.000611435
0.00054072
0.000604108
0.00061248
0.000586932
0.000611483
0.000540766
0.000604157
0.000613469
0.000587948
0.000612482
0.00054175
0.000605162
0.000613593
0.000588073
0.000612606
0.000541869
0.000605287
0.000617645
0.000592289
0.000616681
0.000546107
0.000609497
0.000616738
0.000591655
0.000616142
0.000545848
0.000607364
0.000612761
0.000587519
0.000612146
0.000541692
0.000603226
0.000612639
0.000587396
0.000612024
0.000541575
0.000603103
0.000611649
0.000586381
0.000611025
0.000540592
0.000602099
0.000611602
0.000586333
0.000610977
0.000540546
0.00060205
0.000611346
0.000586072
0.000610718
0.000540294
0.00060179
0.000611332
0.000586058
0.000610703
0.00054028
0.000601775
0.000611267
0.000585992
0.000610637
0.000540217
0.000601709
0.000611264
0.000585988
0.000610633
0.000540213
0.000601705
0.000611251
0.000585976
0.000610621
0.000540201
0.000601692
0.000611251
0.000585976
0.000610621
0.000540201
0.000601692
0.000611264
0.000585988
0.000610633
0.000540213
0.000601705
0.000611267
0.000585992
0.000610637
0.000540217
0.000601709
0.000611332
0.000586058
0.000610703
0.00054028
0.000601775
0.000611346
0.000586072
0.000610718
0.000540294
0.00060179
0.000611602
0.000586333
0.000610977
0.000540546
0.00060205
0.000611649
0.000586381
0.000611025
0.000540592
0.000602099
0.000612639
0.000587396
0.000612024
0.000541575
0.000603103
0.000612761
0.000587519
0.000612146
0.000541692
0.000603226
0.000616738
0.000591655
0.000616142
0.000545848
0.000607364
0.000615848
0.000591031
0.00061561
0.000545509
0.000605224
0.000611943
0.000586973
0.000611691
0.000541432
0.000601155
0.000611823
0.000586853
0.000611571
0.000541317
0.000601034
0.000610834
0.000585838
0.000610573
0.000540335
0.000600031
0.000610787
0.000585791
0.000610525
0.00054029
0.000599983
0.00061053
0.000585529
0.000610264
0.000540037
0.000599721
0.000610515
0.000585515
0.000610249
0.000540023
0.000599706
0.00061045
0.000585448
0.000610183
0.000539959
0.00059964
0.000610446
0.000585444
0.000610179
0.000539955
0.000599636
0.000610434
0.000585432
0.000610167
0.000539943
0.000599623
0.000610434
0.000585432
0.000610167
0.000539943
0.000599623
0.000610446
0.000585444
0.000610179
0.000539955
0.000599636
0.00061045
0.000585448
0.000610183
0.000539959
0.00059964
0.000610515
0.000585515
0.000610249
0.000540023
0.000599706
0.00061053
0.000585529
0.000610264
0.000540037
0.000599721
0.000610787
0.000585791
0.000610525
0.00054029
0.000599983
0.000610834
0.000585838
0.000610573
0.000540335
0.000600031
0.000611823
0.000586853
0.000611571
0.000541317
0.000601034
0.000611943
0.000586973
0.000611691
0.000541432
0.000601155
0.000615848
0.000591031
0.00061561
0.000545509
0.000605224
0.000614975
0.000590419
0.000615086
0.000545089
0.000603091
0.00061114
0.000586437
0.000611243
0.000541092
0.00059909
0.000611022
0.000586319
0.000611124
0.000540978
0.000598971
0.000610034
0.000585306
0.000610127
0.000539998
0.00059797
0.000609988
0.000585259
0.00061008
0.000539953
0.000597922
0.000609729
0.000584996
0.000609818
0.000539699
0.000597659
0.000609714
0.000584981
0.000609803
0.000539685
0.000597644
0.000609648
0.000584914
0.000609736
0.000539621
0.000597577
0.000609645
0.00058491
0.000609732
0.000539617
0.000597573
0.000609632
0.000584898
0.00060972
0.000539605
0.00059756
0.000609632
0.000584898
0.00060972
0.000539605
0.00059756
0.000609645
0.00058491
0.000609732
0.000539617
0.000597573
0.000609648
0.000584914
0.000609736
0.000539621
0.000597577
0.000609714
0.000584981
0.000609803
0.000539685
0.000597644
0.000609729
0.000584996
0.000609818
0.000539699
0.000597659
0.000609988
0.000585259
0.00061008
0.000539953
0.000597922
0.000610034
0.000585306
0.000610127
0.000539998
0.00059797
0.000611022
0.000586319
0.000611124
0.000540978
0.000598971
0.00061114
0.000586437
0.000611243
0.000541092
0.00059909
0.000614975
0.000590419
0.000615086
0.000545089
0.000603091
0.000614118
0.000589818
0.000614573
0.000544591
0.000600983
0.000610353
0.000585911
0.000610803
0.000540671
0.000597047
0.000610237
0.000585794
0.000610687
0.00054056
0.00059693
0.000609249
0.000584784
0.000609691
0.000539581
0.000595931
0.000609203
0.000584737
0.000609644
0.000539537
0.000595884
0.000608943
0.000584473
0.000609381
0.000539282
0.00059562
0.000608929
0.000584458
0.000609366
0.000539268
0.000595605
0.000608862
0.00058439
0.000609298
0.000539203
0.000595537
0.000608859
0.000584387
0.000609295
0.0005392
0.000595533
0.000608846
0.000584374
0.000609282
0.000539187
0.00059552
0.000608846
0.000584374
0.000609282
0.000539187
0.00059552
0.000608859
0.000584387
0.000609295
0.0005392
0.000595533
0.000608862
0.00058439
0.000609298
0.000539203
0.000595537
0.000608929
0.000584458
0.000609366
0.000539268
0.000595605
0.000608943
0.000584473
0.000609381
0.000539282
0.00059562
0.000609203
0.000584737
0.000609644
0.000539537
0.000595884
0.000609249
0.000584784
0.000609691
0.000539581
0.000595931
0.000610237
0.000585794
0.000610687
0.00054056
0.00059693
0.000610353
0.000585911
0.000610803
0.000540671
0.000597047
0.000614118
0.000589818
0.000614573
0.000544591
0.000600983
0.000613278
0.00058923
0.000614071
0.000544015
0.000598805
0.000609581
0.000585396
0.000610374
0.000540171
0.000594934
0.000609466
0.000585281
0.000610259
0.000540062
0.000594819
0.000608481
0.000584272
0.000609265
0.000539086
0.000593823
0.000608435
0.000584226
0.000609219
0.000539042
0.000593776
0.000608173
0.00058396
0.000608954
0.000538787
0.000593511
0.000608159
0.000583946
0.000608939
0.000538773
0.000593496
0.000608092
0.000583877
0.000608871
0.000538707
0.000593428
0.000608088
0.000583874
0.000608867
0.000538704
0.000593424
0.000608075
0.000583861
0.000608854
0.000538691
0.000593411
0.000608075
0.000583861
0.000608854
0.000538691
0.000593411
0.000608088
0.000583874
0.000608867
0.000538704
0.000593424
0.000608092
0.000583877
0.000608871
0.000538707
0.000593427
0.000608159
0.000583946
0.000608939
0.000538773
0.000593496
0.000608173
0.00058396
0.000608954
0.000538787
0.000593511
0.000608435
0.000584226
0.000609219
0.000539042
0.000593776
0.000608481
0.000584272
0.000609265
0.000539086
0.000593823
0.000609466
0.000585281
0.000610259
0.000540062
0.000594819
0.000609581
0.000585396
0.000610374
0.000540171
0.000594934
0.000613278
0.00058923
0.000614071
0.000544015
0.000598805
-1.84279e-05
1.8955e-05
4.3554e-06
9.47625e-07
3.04799e-07
1.89054e-07
1.67033e-07
1.62759e-07
1.61855e-07
1.61667e-07
1.61616e-07
1.61595e-07
1.61504e-07
1.61398e-07
1.60544e-07
1.59881e-07
1.53457e-07
1.50685e-07
1.11942e-07
1.07831e-07
-1.86421e-05
1.89825e-05
4.41906e-06
9.63316e-07
3.08068e-07
1.89716e-07
1.67155e-07
1.62769e-07
1.61841e-07
1.61647e-07
1.61595e-07
1.61573e-07
1.6148e-07
1.61372e-07
1.60505e-07
1.59834e-07
1.53339e-07
1.50561e-07
1.11643e-07
1.0762e-07
-1.86449e-05
1.898e-05
4.41933e-06
9.6352e-07
3.08134e-07
1.89733e-07
1.67159e-07
1.6277e-07
1.61841e-07
1.61646e-07
1.61594e-07
1.61573e-07
1.61479e-07
1.61371e-07
1.60504e-07
1.59833e-07
1.53337e-07
1.50559e-07
1.1164e-07
1.07618e-07
-1.86609e-05
1.89611e-05
4.41789e-06
9.63835e-07
3.08314e-07
1.89781e-07
1.67171e-07
1.62772e-07
1.6184e-07
1.61645e-07
1.61593e-07
1.61572e-07
1.61478e-07
1.6137e-07
1.60501e-07
1.5983e-07
1.53331e-07
1.50552e-07
1.11628e-07
1.07612e-07
-1.86616e-05
1.89598e-05
4.41766e-06
9.63819e-07
3.08317e-07
1.89783e-07
1.67172e-07
1.62772e-07
1.6184e-07
1.61645e-07
1.61593e-07
1.61572e-07
1.61478e-07
1.6137e-07
1.60501e-07
1.5983e-07
1.5333e-07
1.50552e-07
1.11628e-07
1.07612e-07
-1.86644e-05
1.89549e-05
4.41669e-06
9.63725e-07
3.08314e-07
1.89784e-07
1.67173e-07
1.62773e-07
1.6184e-07
1.61645e-07
1.61593e-07
1.61572e-07
1.61478e-07
1.6137e-07
1.60501e-07
1.5983e-07
1.5333e-07
1.50552e-07
1.11628e-07
1.07611e-07
-1.86646e-05
1.89546e-05
4.41663e-06
9.63719e-07
3.08313e-07
1.89784e-07
1.67173e-07
1.62773e-07
1.6184e-07
1.61645e-07
1.61593e-07
1.61572e-07
1.61478e-07
1.6137e-07
1.60501e-07
1.5983e-07
1.5333e-07
1.50552e-07
1.11628e-07
1.07611e-07
-1.86654e-05
1.89535e-05
4.41645e-06
9.63699e-07
3.08312e-07
1.89784e-07
1.67173e-07
1.62773e-07
1.6184e-07
1.61645e-07
1.61593e-07
1.61572e-07
1.61478e-07
1.6137e-07
1.60501e-07
1.5983e-07
1.5333e-07
1.50552e-07
1.11628e-07
1.07611e-07
-1.86654e-05
1.89535e-05
4.41644e-06
9.637e-07
3.08312e-07
1.89784e-07
1.67173e-07
1.62773e-07
1.6184e-07
1.61645e-07
1.61593e-07
1.61572e-07
1.61478e-07
1.6137e-07
1.60501e-07
1.5983e-07
1.5333e-07
1.50552e-07
1.11628e-07
1.07611e-07
-1.86656e-05
1.89533e-05
4.41642e-06
9.63698e-07
3.08312e-07
1.89784e-07
1.67173e-07
1.62773e-07
1.6184e-07
1.61645e-07
1.61593e-07
1.61572e-07
1.61478e-07
1.6137e-07
1.60501e-07
1.5983e-07
1.5333e-07
1.50552e-07
1.11628e-07
1.07611e-07
-1.86656e-05
1.89533e-05
4.41642e-06
9.63698e-07
3.08312e-07
1.89784e-07
1.67173e-07
1.62773e-07
1.6184e-07
1.61645e-07
1.61593e-07
1.61572e-07
1.61478e-07
1.6137e-07
1.60501e-07
1.5983e-07
1.5333e-07
1.50552e-07
1.11628e-07
1.07611e-07
-1.86654e-05
1.89535e-05
4.41644e-06
9.637e-07
3.08312e-07
1.89784e-07
1.67173e-07
1.62773e-07
1.6184e-07
1.61645e-07
1.61593e-07
1.61572e-07
1.61478e-07
1.6137e-07
1.60501e-07
1.5983e-07
1.5333e-07
1.50552e-07
1.11628e-07
1.07611e-07
-1.86654e-05
1.89535e-05
4.41645e-06
9.63699e-07
3.08312e-07
1.89784e-07
1.67173e-07
1.62773e-07
1.6184e-07
1.61645e-07
1.61593e-07
1.61572e-07
1.61478e-07
1.6137e-07
1.60501e-07
1.5983e-07
1.5333e-07
1.50552e-07
1.11628e-07
1.07611e-07
-1.86646e-05
1.89546e-05
4.41663e-06
9.63719e-07
3.08313e-07
1.89784e-07
1.67173e-07
1.62773e-07
1.6184e-07
1.61645e-07
1.61593e-07
1.61572e-07
1.61478e-07
1.6137e-07
1.60501e-07
1.5983e-07
1.5333e-07
1.50552e-07
1.11628e-07
1.07611e-07
-1.86644e-05
1.89549e-05
4.41669e-06
9.63725e-07
3.08314e-07
1.89784e-07
1.67173e-07
1.62773e-07
1.6184e-07
1.61645e-07
1.61593e-07
1.61572e-07
1.61478e-07
1.6137e-07
1.60501e-07
1.5983e-07
1.5333e-07
1.50552e-07
1.11628e-07
1.07611e-07
-1.86616e-05
1.89598e-05
4.41766e-06
9.63819e-07
3.08317e-07
1.89783e-07
1.67172e-07
1.62772e-07
1.6184e-07
1.61645e-07
1.61593e-07
1.61572e-07
1.61478e-07
1.6137e-07
1.60501e-07
1.5983e-07
1.5333e-07
1.50552e-07
1.11628e-07
1.07612e-07
-1.86609e-05
1.89611e-05
4.41789e-06
9.63835e-07
3.08314e-07
1.89781e-07
1.67171e-07
1.62772e-07
1.6184e-07
1.61645e-07
1.61593e-07
1.61572e-07
1.61478e-07
1.6137e-07
1.60501e-07
1.5983e-07
1.53331e-07
1.50552e-07
1.11628e-07
1.07612e-07
-1.86449e-05
1.898e-05
4.41933e-06
9.6352e-07
3.08134e-07
1.89733e-07
1.67159e-07
1.6277e-07
1.61841e-07
1.61646e-07
1.61594e-07
1.61573e-07
1.61479e-07
1.61371e-07
1.60504e-07
1.59833e-07
1.53337e-07
1.50559e-07
1.1164e-07
1.07618e-07
-1.86421e-05
1.89825e-05
4.41906e-06
9.63316e-07
3.08068e-07
1.89716e-07
1.67155e-07
1.62769e-07
1.61841e-07
1.61647e-07
1.61595e-07
1.61573e-07
1.6148e-07
1.61372e-07
1.60505e-07
1.59834e-07
1.53339e-07
1.50561e-07
1.11643e-07
1.0762e-07
-1.84279e-05
1.8955e-05
4.3554e-06
9.47625e-07
3.04799e-07
1.89054e-07
1.67033e-07
1.62759e-07
1.61855e-07
1.61667e-07
1.61616e-07
1.61595e-07
1.61504e-07
1.61398e-07
1.60544e-07
1.59881e-07
1.53457e-07
1.50685e-07
1.11942e-07
1.07831e-07
-1.81491e-05
1.916e-05
4.39573e-06
9.55452e-07
3.06325e-07
1.8935e-07
1.67091e-07
1.62835e-07
1.61947e-07
1.61755e-07
1.61704e-07
1.61683e-07
1.6159e-07
1.61482e-07
1.60592e-07
1.59866e-07
1.53376e-07
1.50579e-07
1.11347e-07
1.07208e-07
-1.83543e-05
1.91885e-05
4.46007e-06
9.71304e-07
3.09632e-07
1.9002e-07
1.67216e-07
1.62843e-07
1.61932e-07
1.61736e-07
1.61683e-07
1.61661e-07
1.61566e-07
1.61457e-07
1.60551e-07
1.59817e-07
1.53257e-07
1.50453e-07
1.11044e-07
1.06992e-07
-1.83569e-05
1.9186e-05
4.46033e-06
9.71509e-07
3.09699e-07
1.90037e-07
1.6722e-07
1.62844e-07
1.61932e-07
1.61735e-07
1.61683e-07
1.61661e-07
1.61566e-07
1.61456e-07
1.6055e-07
1.59816e-07
1.53255e-07
1.50451e-07
1.11041e-07
1.0699e-07
-1.83716e-05
1.91669e-05
4.45889e-06
9.71828e-07
3.09881e-07
1.90085e-07
1.67233e-07
1.62846e-07
1.61932e-07
1.61734e-07
1.61681e-07
1.6166e-07