/*--------------------------------*- C++ -*----------------------------------*\
  =========                 |
  \\      /  F ield         | OpenFOAM: The Open Source CFD Toolbox
   \\    /   O peration     | Website:  https://openfoam.org
    \\  /    A nd           | Version:  8
     \\/     M anipulation  |
\*---------------------------------------------------------------------------*/
FoamFile
{
    version     2.0;
    format      ascii;
    class       volScalarField;
    location    "3.7";
    object      p;
}
// * * * * * * * * * * * * * * * * * * * * * * * * * * * * * * * * * * * * * //

dimensions      [0 2 -2 0 0 0 0];

internalField   nonuniform List<scalar> 
180000
(
0.00089957
0.00083872
0.000876909
0.000747107
0.00081579
0.000885032
0.000824412
0.000862319
0.00073384
0.000801381
0.000884229
0.000823645
0.000861515
0.000733169
0.000800624
0.000879957
0.000819538
0.000857227
0.000729544
0.0007966
0.000879408
0.000819015
0.000856674
0.000729086
0.000796081
0.000877462
0.000817156
0.000854716
0.000727453
0.000794248
0.000877157
0.000816866
0.000854407
0.000727198
0.000793957
0.000876275
0.000816024
0.000853517
0.000726458
0.000793123
0.000876145
0.000815901
0.000853385
0.000726349
0.000792999
0.00087589
0.000815658
0.000853129
0.000726136
0.000792758
0.00087589
0.000815658
0.000853129
0.000726136
0.000792758
0.000876145
0.000815901
0.000853385
0.000726349
0.000792999
0.000876275
0.000816024
0.000853517
0.000726458
0.000793123
0.000877157
0.000816866
0.000854407
0.000727198
0.000793957
0.000877462
0.000817156
0.000854716
0.000727453
0.000794248
0.000879408
0.000819015
0.000856674
0.000729086
0.000796081
0.000879957
0.000819538
0.000857227
0.000729544
0.0007966
0.000884229
0.000823645
0.000861515
0.000733169
0.000800624
0.000885032
0.000824412
0.000862319
0.00073384
0.000801381
0.00089957
0.00083872
0.000876909
0.000747107
0.00081579
0.000734349
0.000706089
0.000724759
0.000655757
0.000694927
0.000727987
0.000698936
0.000718034
0.00064795
0.000687386
0.000727629
0.000698545
0.000717656
0.000647548
0.000686983
0.000725676
0.000696411
0.000715595
0.000645342
0.000684797
0.000725426
0.00069614
0.00071533
0.000645064
0.000684516
0.000724528
0.000695167
0.00071438
0.000644066
0.000683513
0.000724388
0.000695015
0.000714231
0.00064391
0.000683354
0.000723979
0.000694574
0.000713798
0.000643457
0.000682897
0.000723919
0.000694509
0.000713734
0.00064339
0.000682829
0.000723801
0.000694381
0.000713609
0.000643259
0.000682697
0.000723801
0.000694381
0.000713609
0.000643259
0.000682697
0.000723919
0.000694509
0.000713734
0.00064339
0.000682829
0.000723979
0.000694574
0.000713798
0.000643457
0.000682897
0.000724388
0.000695015
0.000714231
0.00064391
0.000683354
0.000724528
0.000695167
0.00071438
0.000644066
0.000683513
0.000725426
0.00069614
0.00071533
0.000645064
0.000684516
0.000725676
0.000696411
0.000715595
0.000645342
0.000684797
0.000727629
0.000698545
0.000717656
0.000647548
0.000686983
0.000727987
0.000698936
0.000718034
0.00064795
0.000687386
0.000734349
0.000706089
0.000724759
0.000655757
0.000694927
0.000527072
0.000504644
0.000519914
0.00046601
0.000498946
0.000521966
0.000499176
0.000514626
0.000460337
0.000493248
0.000521678
0.000498877
0.000514329
0.000460044
0.000492942
0.00052008
0.000497209
0.000512675
0.000458398
0.000491247
0.000519878
0.000497
0.000512464
0.000458192
0.000491031
0.000519145
0.000496241
0.000511704
0.000457448
0.000490255
0.000519032
0.000496124
0.000511586
0.000457332
0.000490133
0.000518699
0.000495779
0.000511239
0.000456994
0.000489779
0.00051865
0.000495729
0.000511189
0.000456945
0.000489727
0.000518554
0.00049563
0.000511089
0.000456848
0.000489625
0.000518554
0.00049563
0.000511089
0.000456848
0.000489625
0.00051865
0.000495729
0.000511189
0.000456945
0.000489727
0.000518699
0.000495779
0.000511239
0.000456994
0.000489779
0.000519032
0.000496124
0.000511586
0.000457332
0.000490133
0.000519145
0.000496241
0.000511704
0.000457448
0.000490255
0.000519878
0.000497
0.000512464
0.000458192
0.000491031
0.00052008
0.000497209
0.000512675
0.000458398
0.000491247
0.000521678
0.000498877
0.000514329
0.000460044
0.000492942
0.000521966
0.000499176
0.000514626
0.000460337
0.000493248
0.000527072
0.000504644
0.000519914
0.00046601
0.000498946
0.000492446
0.00046626
0.000484191
0.000423604
0.000462829
0.000486364
0.000460102
0.00047803
0.00041765
0.00045654
0.00048602
0.000459763
0.000477682
0.00041734
0.000456199
0.000484113
0.000457873
0.000475748
0.00041559
0.000454307
0.000483872
0.000457636
0.000475503
0.000415373
0.000454067
0.000483
0.000456778
0.000474616
0.000414583
0.000453202
0.000482865
0.000456646
0.000474478
0.000414461
0.000453067
0.000482469
0.000456257
0.000474075
0.000414102
0.000452673
0.000482412
0.000456201
0.000474016
0.00041405
0.000452615
0.000482298
0.000456088
0.000473899
0.000413947
0.000452501
0.000482298
0.000456088
0.000473899
0.000413947
0.000452501
0.000482412
0.000456201
0.000474016
0.00041405
0.000452615
0.000482469
0.000456257
0.000474075
0.000414102
0.000452673
0.000482865
0.000456646
0.000474478
0.000414461
0.000453067
0.000483
0.000456778
0.000474616
0.000414583
0.000453202
0.000483872
0.000457636
0.000475503
0.000415373
0.000454067
0.000484113
0.000457873
0.000475748
0.00041559
0.000454307
0.00048602
0.000459763
0.000477682
0.00041734
0.000456199
0.000486364
0.000460102
0.00047803
0.00041765
0.00045654
0.000492446
0.00046626
0.000484191
0.000423604
0.000462829
0.000515387
0.000487705
0.000507007
0.000442268
0.000487081
0.00050898
0.000481214
0.000500516
0.000436003
0.000480476
0.000508613
0.000480853
0.000500145
0.000435673
0.000480111
0.000506573
0.00047883
0.000498076
0.000433802
0.000478086
0.000506316
0.000478578
0.000497814
0.000433571
0.000477829
0.000505383
0.000477659
0.000496865
0.000432725
0.000476902
0.000505238
0.000477518
0.000496718
0.000432595
0.000476757
0.000504815
0.000477101
0.000496286
0.000432212
0.000476335
0.000504753
0.000477041
0.000496223
0.000432156
0.000476273
0.000504631
0.000476921
0.000496098
0.000432045
0.000476151
0.000504631
0.000476921
0.000496098
0.000432045
0.000476151
0.000504753
0.000477041
0.000496223
0.000432156
0.000476273
0.000504815
0.000477101
0.000496286
0.000432212
0.000476335
0.000505238
0.000477518
0.000496718
0.000432595
0.000476757
0.000505383
0.000477659
0.000496865
0.000432725
0.000476902
0.000506316
0.000478578
0.000497814
0.000433571
0.000477829
0.000506573
0.00047883
0.000498076
0.000433802
0.000478086
0.000508613
0.000480853
0.000500145
0.000435673
0.000480111
0.00050898
0.000481214
0.000500516
0.000436003
0.000480476
0.000515387
0.000487705
0.000507007
0.000442268
0.000487081
0.000528183
0.00050107
0.000520463
0.000455786
0.000504219
0.000521959
0.000494717
0.00051414
0.000449595
0.000497756
0.000521598
0.00049436
0.000513775
0.000449265
0.000497393
0.000519575
0.00049234
0.000511718
0.000447379
0.000495361
0.000519321
0.000492089
0.000511458
0.000447145
0.000495104
0.000518394
0.00049117
0.000510513
0.000446292
0.000494173
0.000518251
0.000491029
0.000510367
0.000446161
0.000494028
0.00051783
0.000490613
0.000509937
0.000445774
0.000493604
0.000517769
0.000490552
0.000509874
0.000445718
0.000493542
0.000517648
0.000490432
0.00050975
0.000445606
0.000493419
0.000517648
0.000490432
0.00050975
0.000445606
0.000493419
0.000517769
0.000490552
0.000509874
0.000445718
0.000493542
0.00051783
0.000490613
0.000509937
0.000445774
0.000493604
0.000518251
0.000491029
0.000510367
0.000446161
0.000494028
0.000518394
0.00049117
0.000510513
0.000446292
0.000494173
0.000519321
0.000492089
0.000511458
0.000447145
0.000495104
0.000519575
0.00049234
0.000511718
0.000447379
0.000495361
0.000521598
0.00049436
0.000513775
0.000449265
0.000497393
0.000521959
0.000494717
0.00051414
0.000449595
0.000497756
0.000528183
0.00050107
0.000520463
0.000455786
0.000504219
0.000528119
0.000501754
0.000521102
0.000457294
0.000509011
0.000522108
0.000495607
0.000514994
0.000451284
0.000502764
0.000521756
0.000495258
0.000514637
0.00045096
0.000502408
0.000519762
0.000493264
0.000512609
0.00044909
0.000500394
0.000519512
0.000493017
0.000512354
0.00044886
0.00050014
0.000518598
0.000492109
0.000511421
0.000448012
0.000499216
0.000518457
0.00049197
0.000511277
0.000447883
0.000499073
0.000518042
0.000491558
0.000510853
0.000447498
0.000498652
0.000517982
0.000491499
0.000510791
0.000447443
0.00049859
0.000517862
0.00049138
0.000510668
0.000447332
0.000498469
0.000517862
0.00049138
0.000510668
0.000447332
0.000498469
0.000517982
0.000491499
0.000510791
0.000447443
0.00049859
0.000518042
0.000491558
0.000510853
0.000447498
0.000498652
0.000518457
0.00049197
0.000511277
0.000447883
0.000499073
0.000518598
0.000492109
0.000511421
0.000448012
0.000499216
0.000519512
0.000493017
0.000512354
0.00044886
0.00050014
0.000519762
0.000493264
0.000512609
0.00044909
0.000500394
0.000521756
0.000495258
0.000514637
0.00045096
0.000502408
0.000522108
0.000495607
0.000514994
0.000451284
0.000502764
0.000528119
0.000501754
0.000521102
0.000457294
0.000509011
0.000525489
0.00049954
0.000519033
0.000455644
0.000510693
0.000519604
0.000493533
0.00051306
0.000449776
0.000504596
0.000519257
0.000493188
0.000512708
0.000449457
0.000504244
0.00051727
0.000491203
0.000510687
0.000447595
0.000502233
0.000517021
0.000490957
0.000510434
0.000447366
0.00050198
0.000516109
0.000490052
0.000509504
0.000446522
0.000501056
0.000515969
0.000489915
0.000509361
0.000446393
0.000500913
0.000515555
0.000489504
0.000508938
0.00044601
0.000500492
0.000515495
0.000489445
0.000508876
0.000445955
0.000500431
0.000515375
0.000489327
0.000508754
0.000445844
0.000500309
0.000515375
0.000489327
0.000508754
0.000445844
0.000500309
0.000515495
0.000489445
0.000508876
0.000445955
0.000500431
0.000515555
0.000489504
0.000508938
0.00044601
0.000500492
0.000515969
0.000489915
0.000509361
0.000446393
0.000500913
0.000516109
0.000490052
0.000509504
0.000446522
0.000501056
0.000517021
0.000490957
0.000510434
0.000447366
0.00050198
0.00051727
0.000491203
0.000510687
0.000447595
0.000502233
0.000519257
0.000493188
0.000512708
0.000449457
0.000504244
0.000519604
0.000493533
0.00051306
0.000449776
0.000504596
0.000525489
0.00049954
0.000519033
0.000455644
0.000510693
0.00052424
0.000498562
0.000518281
0.000455082
0.000513109
0.000518449
0.000492659
0.000512408
0.000449324
0.000507122
0.000518104
0.000492318
0.000512058
0.000449006
0.000506771
0.000516114
0.000490332
0.000510037
0.000447144
0.000504754
0.000515866
0.000490087
0.000509784
0.000446916
0.000504501
0.000514952
0.000489181
0.000508852
0.00044607
0.000503574
0.000514812
0.000489043
0.000508709
0.000445942
0.000503431
0.000514396
0.000488632
0.000508285
0.000445558
0.000503008
0.000514337
0.000488573
0.000508224
0.000445503
0.000502947
0.000514217
0.000488455
0.000508101
0.000445392
0.000502825
0.000514217
0.000488455
0.000508101
0.000445392
0.000502825
0.000514337
0.000488573
0.000508224
0.000445503
0.000502947
0.000514396
0.000488632
0.000508285
0.000445558
0.000503008
0.000514812
0.000489043
0.000508709
0.000445942
0.000503431
0.000514952
0.000489181
0.000508852
0.00044607
0.000503574
0.000515866
0.000490087
0.000509784
0.000446916
0.000504501
0.000516114
0.000490332
0.000510037
0.000447144
0.000504754
0.000518104
0.000492318
0.000512058
0.000449006
0.000506771
0.000518449
0.000492659
0.000512408
0.000449324
0.000507122
0.00052424
0.000498562
0.000518281
0.000455082
0.000513109
0.00052393
0.000498526
0.000518458
0.000455514
0.000515816
0.000518235
0.000492726
0.000512686
0.000449857
0.000509926
0.000517892
0.000492387
0.000512339
0.000449542
0.000509577
0.000515901
0.000490401
0.000510317
0.000447679
0.000507553
0.000515654
0.000490157
0.000510065
0.000447452
0.000507301
0.000514738
0.00048925
0.000509132
0.000446604
0.000506369
0.000514598
0.000489113
0.000508989
0.000446476
0.000506226
0.000514182
0.000488701
0.000508564
0.000446091
0.000505801
0.000514122
0.000488642
0.000508503
0.000446036
0.00050574
0.000514002
0.000488523
0.00050838
0.000445924
0.000505617
0.000514002
0.000488523
0.00050838
0.000445924
0.000505617
0.000514122
0.000488642
0.000508503
0.000446036
0.00050574
0.000514182
0.000488701
0.000508564
0.000446091
0.000505801
0.000514598
0.000489113
0.000508989
0.000446476
0.000506226
0.000514738
0.00048925
0.000509132
0.000446604
0.000506369
0.000515654
0.000490157
0.000510065
0.000447452
0.000507301
0.000515901
0.000490401
0.000510317
0.000447679
0.000507553
0.000517892
0.000492387
0.000512339
0.000449542
0.000509577
0.000518235
0.000492726
0.000512686
0.000449857
0.000509926
0.00052393
0.000498526
0.000518458
0.000455514
0.000515816
0.000523717
0.000498605
0.000518725
0.000456148
0.00051767
0.000518122
0.000492911
0.000513058
0.000450593
0.000511864
0.000517782
0.000492575
0.000512714
0.000450281
0.000511516
0.000515793
0.000490592
0.000510694
0.000448417
0.000509488
0.000515546
0.000490349
0.000510443
0.00044819
0.000509235
0.000514629
0.000489441
0.000509509
0.000447341
0.0005083
0.000514491
0.000489304
0.000509367
0.000447213
0.000508157
0.000514073
0.000488892
0.000508942
0.000446827
0.00050773
0.000514014
0.000488833
0.000508881
0.000446773
0.000507669
0.000513894
0.000488714
0.000508758
0.000446661
0.000507546
0.000513894
0.000488714
0.000508758
0.000446661
0.000507546
0.000514014
0.000488833
0.000508881
0.000446773
0.000507669
0.000514073
0.000488892
0.000508942
0.000446827
0.00050773
0.000514491
0.000489304
0.000509367
0.000447213
0.000508157
0.000514629
0.000489441
0.000509509
0.000447341
0.0005083
0.000515546
0.000490349
0.000510443
0.00044819
0.000509235
0.000515793
0.000490592
0.000510694
0.000448417
0.000509488
0.000517782
0.000492575
0.000512714
0.000450281
0.000511516
0.000518122
0.000492911
0.000513058
0.000450593
0.000511864
0.000523717
0.000498605
0.000518725
0.000456148
0.00051767
0.00052339
0.000498566
0.000518861
0.000456679
0.000516464
0.000517895
0.000492978
0.000513299
0.000451226
0.000510757
0.000517557
0.000492645
0.000512958
0.000450916
0.000510413
0.000515571
0.000490664
0.000510942
0.000449053
0.000508388
0.000515325
0.000490422
0.000510692
0.000448827
0.000508136
0.000514408
0.000489514
0.000509758
0.000447977
0.000507201
0.00051427
0.000489378
0.000509616
0.000447849
0.000507058
0.000513852
0.000488966
0.00050919
0.000447463
0.000506632
0.000513793
0.000488907
0.00050913
0.000447408
0.00050657
0.000513672
0.000488788
0.000509007
0.000447296
0.000506447
0.000513672
0.000488788
0.000509007
0.000447296
0.000506447
0.000513793
0.000488907
0.00050913
0.000447408
0.00050657
0.000513852
0.000488966
0.00050919
0.000447463
0.000506632
0.00051427
0.000489378
0.000509616
0.000447849
0.000507058
0.000514408
0.000489514
0.000509758
0.000447977
0.000507201
0.000515325
0.000490422
0.000510692
0.000448827
0.000508136
0.000515571
0.000490664
0.000510942
0.000449053
0.000508388
0.000517557
0.000492645
0.000512958
0.000450916
0.000510413
0.000517895
0.000492978
0.000513299
0.000451226
0.000510757
0.00052339
0.000498566
0.000518861
0.000456679
0.000516464
0.000523023
0.000498475
0.000518939
0.000457081
0.000514386
0.000517626
0.00049299
0.000513479
0.000451728
0.000508782
0.000517291
0.000492659
0.000513141
0.00045142
0.000508442
0.000515307
0.000490682
0.000511128
0.000449559
0.000506423
0.000515062
0.000490442
0.000510879
0.000449333
0.000506173
0.000514144
0.000489533
0.000509945
0.000448482
0.000505239
0.000514007
0.000489398
0.000509804
0.000448355
0.000505097
0.000513589
0.000488985
0.000509378
0.000447968
0.000504671
0.00051353
0.000488927
0.000509317
0.000447913
0.00050461
0.000513409
0.000488808
0.000509194
0.000447801
0.000504486
0.000513409
0.000488808
0.000509194
0.000447801
0.000504486
0.00051353
0.000488927
0.000509317
0.000447913
0.00050461
0.000513589
0.000488985
0.000509378
0.000447968
0.000504671
0.000514007
0.000489398
0.000509804
0.000448355
0.000505097
0.000514144
0.000489533
0.000509945
0.000448482
0.000505239
0.000515062
0.000490442
0.000510879
0.000449333
0.000506173
0.000515307
0.000490682
0.000511128
0.000449559
0.000506423
0.000517291
0.000492659
0.000513141
0.00045142
0.000508442
0.000517626
0.00049299
0.000513479
0.000451728
0.000508782
0.000523023
0.000498475
0.000518939
0.000457081
0.000514386
0.00052268
0.000498395
0.000519023
0.0004574
0.000512569
0.000517377
0.00049301
0.000513662
0.000452145
0.000507065
0.000517045
0.000492683
0.000513327
0.00045184
0.000506728
0.000515064
0.000490709
0.000511317
0.00044998
0.000504715
0.00051482
0.000490469
0.000511069
0.000449756
0.000504466
0.000513902
0.000489561
0.000510134
0.000448904
0.000503533
0.000513764
0.000489426
0.000509994
0.000448777
0.000503392
0.000513346
0.000489013
0.000509568
0.000448389
0.000502966
0.000513287
0.000488955
0.000509507
0.000448335
0.000502905
0.000513167
0.000488836
0.000509384
0.000448223
0.000502782
0.000513167
0.000488836
0.000509384
0.000448223
0.000502782
0.000513287
0.000488955
0.000509507
0.000448335
0.000502905
0.000513346
0.000489013
0.000509568
0.000448389
0.000502966
0.000513764
0.000489426
0.000509994
0.000448777
0.000503392
0.000513902
0.000489561
0.000510134
0.000448904
0.000503533
0.00051482
0.000490469
0.000511069
0.000449756
0.000504466
0.000515064
0.000490709
0.000511317
0.00044998
0.000504715
0.000517045
0.000492683
0.000513327
0.00045184
0.000506728
0.000517377
0.00049301
0.000513662
0.000452145
0.000507065
0.00052268
0.000498395
0.000519023
0.0004574
0.000512569
0.000522368
0.000498337
0.000519123
0.000457658
0.000511014
0.000517158
0.00049305
0.000513859
0.0004525
0.000505606
0.000516828
0.000492725
0.000513526
0.000452197
0.000505272
0.00051485
0.000490755
0.00051152
0.000450341
0.000503266
0.000514607
0.000490516
0.000511273
0.000450117
0.000503018
0.000513688
0.000489608
0.000510339
0.000449265
0.000502085
0.000513551
0.000489473
0.000510199
0.000449138
0.000501945
0.000513133
0.00048906
0.000509772
0.00044875
0.000501519
0.000513074
0.000489002
0.000509712
0.000448696
0.000501458
0.000512954
0.000488883
0.000509589
0.000448584
0.000501335
0.000512954
0.000488883
0.000509589
0.000448584
0.000501335
0.000513074
0.000489002
0.000509712
0.000448696
0.000501458
0.000513133
0.00048906
0.000509772
0.00044875
0.000501519
0.000513551
0.000489473
0.000510199
0.000449138
0.000501945
0.000513688
0.000489608
0.000510339
0.000449265
0.000502085
0.000514607
0.000490516
0.000511273
0.000450117
0.000503018
0.00051485
0.000490755
0.00051152
0.000450341
0.000503266
0.000516828
0.000492725
0.000513526
0.000452197
0.000505272
0.000517158
0.00049305
0.000513859
0.0004525
0.000505606
0.000522368
0.000498337
0.000519123
0.000457658
0.000511014
0.000522079
0.000498293
0.000519233
0.000457857
0.000509522
0.000516958
0.000493101
0.000514064
0.000452794
0.000504208
0.000516631
0.000492779
0.000513734
0.000452494
0.000503877
0.000514656
0.000490813
0.000511732
0.00045064
0.000501877
0.000514415
0.000490575
0.000511486
0.000450418
0.000501631
0.000513496
0.000489667
0.000510551
0.000449565
0.000500699
0.000513359
0.000489532
0.000510412
0.000449438
0.000500559
0.000512941
0.000489119
0.000509985
0.00044905
0.000500133
0.000512882
0.000489062
0.000509925
0.000448996
0.000500073
0.000512761
0.000488943
0.000509802
0.000448884
0.00049995
0.000512761
0.000488943
0.000509802
0.000448884
0.00049995
0.000512882
0.000489062
0.000509925
0.000448996
0.000500073
0.000512941
0.000489119
0.000509985
0.00044905
0.000500133
0.000513359
0.000489532
0.000510412
0.000449438
0.000500559
0.000513496
0.000489667
0.000510551
0.000449565
0.000500699
0.000514415
0.000490575
0.000511486
0.000450418
0.000501631
0.000514656
0.000490813
0.000511732
0.00045064
0.000501877
0.000516631
0.000492779
0.000513734
0.000452494
0.000503877
0.000516958
0.000493101
0.000514064
0.000452794
0.000504208
0.000522079
0.000498293
0.000519233
0.000457857
0.000509522
0.000521807
0.000498258
0.000519349
0.000457994
0.000508024
0.000516775
0.000493159
0.000514273
0.000453024
0.000502802
0.00051645
0.00049284
0.000513946
0.000452726
0.000502474
0.000514479
0.000490878
0.000511948
0.000450877
0.00050048
0.000514238
0.000490641
0.000511703
0.000450655
0.000500235
0.000513319
0.000489733
0.000510768
0.000449802
0.000499304
0.000513183
0.000489599
0.000510629
0.000449676
0.000499165
0.000512764
0.000489186
0.000510202
0.000449288
0.000498739
0.000512706
0.000489129
0.000510143
0.000449234
0.000498679
0.000512585
0.00048901
0.000510019
0.000449122
0.000498556
0.000512585
0.00048901
0.000510019
0.000449122
0.000498556
0.000512706
0.000489129
0.000510143
0.000449234
0.000498679
0.000512764
0.000489186
0.000510202
0.000449288
0.000498739
0.000513183
0.000489599
0.000510629
0.000449676
0.000499165
0.000513319
0.000489733
0.000510768
0.000449802
0.000499304
0.000514238
0.000490641
0.000511703
0.000450655
0.000500235
0.000514479
0.000490878
0.000511948
0.000450877
0.00050048
0.00051645
0.00049284
0.000513946
0.000452726
0.000502474
0.000516775
0.000493159
0.000514273
0.000453024
0.000502802
0.000521807
0.000498258
0.000519349
0.000457994
0.000508024
0.000521552
0.000498233
0.000519473
0.000458068
0.000506531
0.000516606
0.000493225
0.000514488
0.000453191
0.000501398
0.000516284
0.000492908
0.000514163
0.000452895
0.000501073
0.000514317
0.000490951
0.00051217
0.00045105
0.000499087
0.000514078
0.000490715
0.000511926
0.000450829
0.000498843
0.000513159
0.000489807
0.000510991
0.000449976
0.000497913
0.000513023
0.000489674
0.000510853
0.000449851
0.000497774
0.000512604
0.00048926
0.000510426
0.000449462
0.000497349
0.000512546
0.000489203
0.000510366
0.000449408
0.000497289
0.000512425
0.000489084
0.000510243
0.000449296
0.000497166
0.000512425
0.000489084
0.000510243
0.000449296
0.000497166
0.000512546
0.000489203
0.000510366
0.000449408
0.000497289
0.000512604
0.00048926
0.000510426
0.000449462
0.000497349
0.000513023
0.000489674
0.000510853
0.000449851
0.000497774
0.000513159
0.000489807
0.000510991
0.000449976
0.000497913
0.000514078
0.000490715
0.000511926
0.000450829
0.000498843
0.000514317
0.000490951
0.00051217
0.00045105
0.000499087
0.000516284
0.000492908
0.000514163
0.000452895
0.000501073
0.000516606
0.000493225
0.000514488
0.000453191
0.000501398
0.000521552
0.000498233
0.000519473
0.000458068
0.000506531
0.000521315
0.000498217
0.000519606
0.000458081
0.000505057
0.000516454
0.000493298
0.00051471
0.000453294
0.000500011
0.000516134
0.000492983
0.000514388
0.000453001
0.000499689
0.000514171
0.000491031
0.000512399
0.000451161
0.000497709
0.000513933
0.000490797
0.000512157
0.000450941
0.000497467
0.000513014
0.000489889
0.000511222
0.000450088
0.000496538
0.000512878
0.000489756
0.000511084
0.000449963
0.0004964
0.000512459
0.000489343
0.000510657
0.000449575
0.000495975
0.000512401
0.000489286
0.000510598
0.000449521
0.000495915
0.00051228
0.000489166
0.000510474
0.000449409
0.000495792
0.00051228
0.000489166
0.000510474
0.000449409
0.000495792
0.000512401
0.000489286
0.000510598
0.000449521
0.000495915
0.000512459
0.000489343
0.000510657
0.000449575
0.000495975
0.000512878
0.000489756
0.000511084
0.000449963
0.0004964
0.000513014
0.000489889
0.000511222
0.000450088
0.000496538
0.000513933
0.000490797
0.000512157
0.000450941
0.000497467
0.000514171
0.000491031
0.000512399
0.000451161
0.000497709
0.000516134
0.000492983
0.000514388
0.000453001
0.000499689
0.000516454
0.000493298
0.00051471
0.000453294
0.000500011
0.000521315
0.000498217
0.000519606
0.000458081
0.000505057
0.000521095
0.000498212
0.000519751
0.000458033
0.000503536
0.000516317
0.000493379
0.000514941
0.000453335
0.000498575
0.000515999
0.000493067
0.000514621
0.000453045
0.000498256
0.000514041
0.00049112
0.000512638
0.00045121
0.000496285
0.000513804
0.000490887
0.000512396
0.000450991
0.000496043
0.000512885
0.000489979
0.000511462
0.000450139
0.000495116
0.00051275
0.000489847
0.000511324
0.000450014
0.000494978
0.000512331
0.000489433
0.000510897
0.000449626
0.000494553
0.000512273
0.000489377
0.000510838
0.000449573
0.000494494
0.000512152
0.000489257
0.000510715
0.00044946
0.000494371
0.000512152
0.000489257
0.000510715
0.00044946
0.000494371
0.000512273
0.000489377
0.000510838
0.000449573
0.000494494
0.000512331
0.000489433
0.000510897
0.000449626
0.000494553
0.00051275
0.000489847
0.000511324
0.000450014
0.000494978
0.000512885
0.000489979
0.000511462
0.000450139
0.000495116
0.000513804
0.000490887
0.000512396
0.000450991
0.000496043
0.000514041
0.00049112
0.000512638
0.00045121
0.000496285
0.000515999
0.000493067
0.000514621
0.000453045
0.000498256
0.000516317
0.000493379
0.000514941
0.000453335
0.000498575
0.000521095
0.000498212
0.000519751
0.000458033
0.000503536
-1.62398e-05
1.57605e-05
2.81462e-06
6.97133e-07
2.51175e-07
1.8078e-07
1.65321e-07
1.62502e-07
1.61809e-07
1.61663e-07
1.61615e-07
1.61593e-07
1.61495e-07
1.61386e-07
1.60519e-07
1.59851e-07
1.53415e-07
1.50644e-07
1.11916e-07
1.07812e-07
-1.6308e-05
1.57207e-05
2.8291e-06
7.02151e-07
2.52413e-07
1.81085e-07
1.65374e-07
1.62501e-07
1.61792e-07
1.61643e-07
1.61593e-07
1.61571e-07
1.61471e-07
1.61359e-07
1.60478e-07
1.59803e-07
1.53295e-07
1.50518e-07
1.11616e-07
1.076e-07
-1.63017e-05
1.57107e-05
2.82601e-06
7.01731e-07
2.5233e-07
1.81074e-07
1.65372e-07
1.62501e-07
1.61792e-07
1.61642e-07
1.61593e-07
1.61571e-07
1.61471e-07
1.61359e-07
1.60477e-07
1.59802e-07
1.53293e-07
1.50516e-07
1.11613e-07
1.07598e-07
-1.62723e-05
1.56586e-05
2.80991e-06
6.99583e-07
2.51915e-07
1.81021e-07
1.65361e-07
1.62498e-07
1.61791e-07
1.61641e-07
1.61592e-07
1.61569e-07
1.61469e-07
1.61357e-07
1.60475e-07
1.59799e-07
1.53286e-07
1.50509e-07
1.11601e-07
1.07592e-07
-1.62671e-05
1.56509e-05
2.80721e-06
6.99161e-07
2.5182e-07
1.81005e-07
1.65357e-07
1.62498e-07
1.6179e-07
1.61641e-07
1.61592e-07
1.61569e-07
1.61469e-07
1.61357e-07
1.60475e-07
1.59799e-07
1.53286e-07
1.50509e-07
1.11601e-07
1.07591e-07
-1.62506e-05
1.56258e-05
2.79864e-06
6.97878e-07
2.51538e-07
1.80959e-07
1.65346e-07
1.62496e-07
1.6179e-07
1.61641e-07
1.61592e-07
1.61569e-07
1.61469e-07
1.61357e-07
1.60474e-07
1.59798e-07
1.53286e-07
1.50509e-07
1.11601e-07
1.07591e-07
-1.62477e-05
1.56216e-05
2.79713e-06
6.97638e-07
2.51483e-07
1.8095e-07
1.65344e-07
1.62495e-07
1.6179e-07
1.61641e-07
1.61592e-07
1.61569e-07
1.61469e-07
1.61357e-07
1.60474e-07
1.59798e-07
1.53286e-07
1.50509e-07
1.11601e-07
1.07591e-07
-1.62401e-05
1.56102e-05
2.79324e-06
6.9705e-07
2.51352e-07
1.80928e-07
1.65339e-07
1.62494e-07
1.61789e-07
1.61641e-07
1.61592e-07
1.61569e-07
1.61469e-07
1.61357e-07
1.60474e-07
1.59798e-07
1.53286e-07
1.50509e-07
1.11601e-07
1.07591e-07
-1.62389e-05
1.56084e-05
2.7926e-06
6.96949e-07
2.51329e-07
1.80924e-07
1.65338e-07
1.62494e-07
1.61789e-07
1.61641e-07
1.61592e-07
1.61569e-07
1.61469e-07
1.61357e-07
1.60474e-07
1.59798e-07
1.53286e-07
1.50509e-07
1.11601e-07
1.07591e-07
-1.62367e-05
1.56052e-05
2.79148e-06
6.9678e-07
2.51291e-07
1.80918e-07
1.65336e-07
1.62494e-07
1.61789e-07
1.61641e-07
1.61592e-07
1.61569e-07
1.61469e-07
1.61357e-07
1.60474e-07
1.59798e-07
1.53286e-07
1.50509e-07
1.11601e-07
1.07591e-07
-1.62367e-05
1.56052e-05
2.79148e-06
6.9678e-07
2.51291e-07
1.80918e-07
1.65336e-07
1.62494e-07
1.61789e-07
1.61641e-07
1.61592e-07
1.61569e-07
1.61469e-07
1.61357e-07
1.60474e-07
1.59798e-07
1.53286e-07
1.50509e-07
1.11601e-07
1.07591e-07
-1.62389e-05
1.56084e-05
2.7926e-06
6.96949e-07
2.51329e-07
1.80924e-07
1.65338e-07
1.62494e-07
1.61789e-07
1.61641e-07
1.61592e-07
1.61569e-07
1.61469e-07
1.61357e-07
1.60474e-07
1.59798e-07
1.53286e-07
1.50509e-07
1.11601e-07
1.07591e-07
-1.62401e-05
1.56102e-05
2.79324e-06
6.9705e-07
2.51352e-07
1.80928e-07
1.65339e-07
1.62494e-07
1.61789e-07
1.61641e-07
1.61592e-07
1.61569e-07
1.61469e-07
1.61357e-07
1.60474e-07
1.59798e-07
1.53286e-07
1.50509e-07
1.11601e-07
1.07591e-07
-1.62477e-05
1.56216e-05
2.79713e-06
6.97638e-07
2.51483e-07
1.8095e-07
1.65344e-07
1.62495e-07
1.6179e-07
1.61641e-07
1.61592e-07
1.61569e-07
1.61469e-07
1.61357e-07
1.60474e-07
1.59798e-07
1.53286e-07
1.50509e-07
1.11601e-07
1.07591e-07
-1.62506e-05
1.56258e-05
2.79864e-06
6.97878e-07
2.51538e-07
1.80959e-07
1.65346e-07
1.62496e-07
1.6179e-07
1.61641e-07
1.61592e-07
1.61569e-07
1.61469e-07
1.61357e-07
1.60474e-07
1.59798e-07
1.53286e-07
1.50509e-07
1.11601e-07
1.07591e-07
-1.62671e-05
1.56509e-05
2.80721e-06
6.99161e-07
2.5182e-07
1.81005e-07
1.65357e-07
1.62498e-07
1.6179e-07
1.61641e-07
1.61592e-07
1.61569e-07
1.61469e-07
1.61357e-07
1.60475e-07
1.59799e-07
1.53286e-07
1.50509e-07
1.11601e-07
1.07591e-07
-1.62723e-05
1.56586e-05
2.80991e-06
6.99583e-07
2.51915e-07
1.81021e-07
1.65361e-07
1.62498e-07
1.61791e-07
1.61641e-07
1.61592e-07
1.61569e-07
1.61469e-07
1.61357e-07
1.60475e-07
1.59799e-07
1.53286e-07
1.50509e-07
1.11601e-07
1.07592e-07
-1.63017e-05
1.57107e-05
2.82601e-06
7.01731e-07
2.5233e-07
1.81074e-07
1.65372e-07
1.62501e-07
1.61792e-07
1.61642e-07
1.61593e-07
1.61571e-07
1.61471e-07
1.61359e-07
1.60477e-07
1.59802e-07
1.53293e-07
1.50516e-07
1.11613e-07
1.07598e-07
-1.6308e-05
1.57207e-05
2.8291e-06
7.02151e-07
2.52413e-07
1.81085e-07
1.65374e-07
1.62501e-07
1.61792e-07
1.61643e-07
1.61593e-07
1.61571e-07
1.61471e-07
1.61359e-07
1.60478e-07
1.59803e-07
1.53295e-07
1.50518e-07
1.11616e-07
1.076e-07
-1.62398e-05
1.57605e-05
2.81462e-06
6.97133e-07
2.51175e-07
1.8078e-07
1.65321e-07
1.62502e-07
1.61809e-07
1.61663e-07
1.61615e-07
1.61593e-07
1.61495e-07
1.61386e-07
1.60519e-07
1.59851e-07
1.53415e-07
1.50644e-07
1.11916e-07
1.07812e-07
-1.58548e-05
1.59306e-05
2.83999e-06
7.02556e-07
2.52125e-07
1.81001e-07
1.65346e-07
1.62596e-07
1.619e-07
1.61751e-07
1.61703e-07
1.61681e-07
1.61582e-07
1.6147e-07
1.60564e-07
1.59833e-07
1.53333e-07
1.50537e-07
1.11321e-07
1.07188e-07
-1.59181e-05
1.58908e-05
2.85464e-06
7.0763e-07
2.53377e-07
1.81309e-07
1.65402e-07
1.62594e-07
1.61883e-07
1.61732e-07
1.61682e-07
1.61659e-07
1.61557e-07
1.61444e-07
1.60522e-07
1.59784e-07
1.53212e-07
1.50409e-07
1.11017e-07
1.06972e-07
-1.59116e-05
1.58807e-05
2.85151e-06
7.07206e-07
2.53294e-07
1.81298e-07
1.65399e-07
1.62594e-07
1.61883e-07
1.61731e-07
1.61681e-07
1.61659e-07
1.61557e-07
1.61444e-07
1.60521e-07
1.59783e-07
1.5321e-07
1.50407e-07
1.11014e-07
1.0697e-07