/*--------------------------------*- C++ -*----------------------------------*\
  =========                 |
  \\      /  F ield         | OpenFOAM: The Open Source CFD Toolbox
   \\    /   O peration     | Website:  https://openfoam.org
    \\  /    A nd           | Version:  8
     \\/     M anipulation  |
\*---------------------------------------------------------------------------*/
FoamFile
{
    version     2.0;
    format      ascii;
    class       volScalarField;
    location    "3.7";
    object      S1;
}
// * * * * * * * * * * * * * * * * * * * * * * * * * * * * * * * * * * * * * //

dimensions      [0 1 -1 0 0 0 0];

internalField   nonuniform List<scalar> 
180000
(
-7.34427e-27
5.06947e-22
2.37939e-17
6.60948e-13
1.38224e-08
-5.11456e-28
7.08372e-22
2.86783e-17
7.58278e-13
1.54257e-08
-4.51839e-28
7.10591e-22
2.87338e-17
7.59297e-13
1.54394e-08
-3.01817e-28
7.16631e-22
2.88883e-17
7.62185e-13
1.54782e-08
-3.45161e-28
7.15498e-22
2.88601e-17
7.61551e-13
1.54655e-08
-4.81889e-28
7.11931e-22
2.87727e-17
7.59636e-13
1.54281e-08
-5.06144e-28
7.11268e-22
2.87561e-17
7.59266e-13
1.54208e-08
-5.66712e-28
7.09627e-22
2.87152e-17
7.58367e-13
1.54033e-08
-5.75866e-28
7.09375e-22
2.87088e-17
7.58224e-13
1.54004e-08
-5.91528e-28
7.08945e-22
2.8698e-17
7.57985e-13
1.53957e-08
-5.91525e-28
7.08945e-22
2.8698e-17
7.57985e-13
1.53957e-08
-5.75866e-28
7.09375e-22
2.87088e-17
7.58224e-13
1.54004e-08
-5.66712e-28
7.09627e-22
2.87152e-17
7.58367e-13
1.54033e-08
-5.06143e-28
7.11268e-22
2.87561e-17
7.59266e-13
1.54208e-08
-4.81892e-28
7.11931e-22
2.87727e-17
7.59636e-13
1.54281e-08
-3.45158e-28
7.15498e-22
2.88601e-17
7.61551e-13
1.54655e-08
-3.01816e-28
7.16631e-22
2.88883e-17
7.62185e-13
1.54782e-08
-4.51836e-28
7.10591e-22
2.87338e-17
7.59297e-13
1.54394e-08
-5.11451e-28
7.08372e-22
2.86784e-17
7.58278e-13
1.54257e-08
-7.34427e-27
5.06947e-22
2.37939e-17
6.60948e-13
1.38224e-08
-7.34481e-27
5.0692e-22
2.37928e-17
6.62158e-13
1.59827e-08
-5.12132e-28
7.08337e-22
2.86769e-17
7.59542e-13
1.77102e-08
-4.52499e-28
7.10557e-22
2.87324e-17
7.60561e-13
1.77231e-08
-3.02481e-28
7.16596e-22
2.88869e-17
7.63442e-13
1.77572e-08
-3.45824e-28
7.15463e-22
2.88587e-17
7.62807e-13
1.77422e-08
-4.8255e-28
7.11896e-22
2.87713e-17
7.60886e-13
1.76975e-08
-5.06805e-28
7.11233e-22
2.87547e-17
7.60515e-13
1.76888e-08
-5.67372e-28
7.09592e-22
2.87138e-17
7.59614e-13
1.76679e-08
-5.76526e-28
7.0934e-22
2.87074e-17
7.5947e-13
1.76645e-08
-5.92187e-28
7.0891e-22
2.86966e-17
7.5923e-13
1.76588e-08
-5.92185e-28
7.08911e-22
2.86966e-17
7.5923e-13
1.76588e-08
-5.76526e-28
7.0934e-22
2.87074e-17
7.5947e-13
1.76645e-08
-5.67372e-28
7.09592e-22
2.87138e-17
7.59614e-13
1.76679e-08
-5.06804e-28
7.11233e-22
2.87547e-17
7.60515e-13
1.76888e-08
-4.82553e-28
7.11896e-22
2.87713e-17
7.60886e-13
1.76975e-08
-3.45821e-28
7.15463e-22
2.88587e-17
7.62807e-13
1.77422e-08
-3.0248e-28
7.16596e-22
2.88869e-17
7.63442e-13
1.77572e-08
-4.52497e-28
7.10557e-22
2.87324e-17
7.60561e-13
1.77231e-08
-5.12127e-28
7.08337e-22
2.86769e-17
7.59542e-13
1.77102e-08
-7.34481e-27
5.0692e-22
2.37928e-17
6.62158e-13
1.59827e-08
-7.34527e-27
5.06885e-22
2.3796e-17
6.70867e-13
2.90385e-08
-5.12723e-28
7.08288e-22
2.86797e-17
7.68539e-13
3.12838e-08
-4.53056e-28
7.10508e-22
2.87352e-17
7.69551e-13
3.12924e-08
-3.03041e-28
7.16547e-22
2.88897e-17
7.72398e-13
3.1305e-08
-3.46383e-28
7.15414e-22
2.88615e-17
7.71753e-13
3.12794e-08
-4.83108e-28
7.11847e-22
2.87741e-17
7.69801e-13
3.1202e-08
-5.07361e-28
7.11185e-22
2.87574e-17
7.69424e-13
3.11873e-08
-5.67928e-28
7.09543e-22
2.87166e-17
7.68509e-13
3.11511e-08
-5.77082e-28
7.09291e-22
2.87102e-17
7.68363e-13
3.11452e-08
-5.92743e-28
7.08862e-22
2.86994e-17
7.68119e-13
3.11352e-08
-5.9274e-28
7.08862e-22
2.86994e-17
7.68119e-13
3.11352e-08
-5.77082e-28
7.09291e-22
2.87102e-17
7.68363e-13
3.11452e-08
-5.67928e-28
7.09543e-22
2.87166e-17
7.68509e-13
3.11511e-08
-5.07361e-28
7.11185e-22
2.87574e-17
7.69424e-13
3.11873e-08
-4.8311e-28
7.11847e-22
2.87741e-17
7.69801e-13
3.1202e-08
-3.4638e-28
7.15414e-22
2.88615e-17
7.71753e-13
3.12794e-08
-3.0304e-28
7.16547e-22
2.88897e-17
7.72398e-13
3.1305e-08
-4.53054e-28
7.10508e-22
2.87352e-17
7.69551e-13
3.12924e-08
-5.12719e-28
7.08288e-22
2.86797e-17
7.68539e-13
3.12838e-08
-7.34527e-27
5.06885e-22
2.3796e-17
6.70867e-13
2.90385e-08
-7.34574e-27
5.06842e-22
2.3817e-17
7.00904e-13
6.60706e-08
-5.13371e-28
7.08222e-22
2.87003e-17
7.99225e-13
6.92505e-08
-4.53643e-28
7.10444e-22
2.87557e-17
8.00217e-13
6.92487e-08
-3.03631e-28
7.16482e-22
2.89101e-17
8.0296e-13
6.92194e-08
-3.46972e-28
7.15349e-22
2.88819e-17
8.02288e-13
6.91729e-08
-4.83695e-28
7.11782e-22
2.87944e-17
8.00248e-13
6.90323e-08
-5.07948e-28
7.1112e-22
2.87777e-17
7.99855e-13
6.90057e-08
-5.68514e-28
7.09479e-22
2.87368e-17
7.98899e-13
6.89393e-08
-5.77668e-28
7.09227e-22
2.87304e-17
7.98747e-13
6.89285e-08
-5.93328e-28
7.08798e-22
2.87196e-17
7.98491e-13
6.89099e-08
-5.93326e-28
7.08798e-22
2.87196e-17
7.98491e-13
6.89099e-08
-5.77668e-28
7.09227e-22
2.87304e-17
7.98747e-13
6.89285e-08
-5.68514e-28
7.09479e-22
2.87368e-17
7.98899e-13
6.89393e-08
-5.07948e-28
7.1112e-22
2.87777e-17
7.99855e-13
6.90057e-08
-4.83697e-28
7.11782e-22
2.87944e-17
8.00248e-13
6.90323e-08
-3.46969e-28
7.1535e-22
2.88819e-17
8.02288e-13
6.91729e-08
-3.0363e-28
7.16482e-22
2.89101e-17
8.0296e-13
6.92194e-08
-4.53641e-28
7.10444e-22
2.87557e-17
8.00217e-13
6.92487e-08
-5.13367e-28
7.08222e-22
2.87003e-17
7.99225e-13
6.92505e-08
-7.34574e-27
5.06842e-22
2.3817e-17
7.00904e-13
6.60706e-08
-7.34622e-27
5.06819e-22
2.38808e-17
7.70961e-13
1.35428e-07
-5.14065e-28
7.08167e-22
2.87635e-17
8.70187e-13
1.39617e-07
-4.54251e-28
7.10392e-22
2.88189e-17
8.71134e-13
1.39597e-07
-3.04243e-28
7.16428e-22
2.89729e-17
8.7365e-13
1.39505e-07
-3.47583e-28
7.15296e-22
2.89446e-17
8.72925e-13
1.39431e-07
-4.84303e-28
7.11729e-22
2.88568e-17
8.70711e-13
1.39207e-07
-5.08556e-28
7.11067e-22
2.88401e-17
8.70288e-13
1.39165e-07
-5.69121e-28
7.09426e-22
2.87991e-17
8.69252e-13
1.39059e-07
-5.78275e-28
7.09174e-22
2.87927e-17
8.69087e-13
1.39041e-07
-5.93935e-28
7.08744e-22
2.87819e-17
8.68807e-13
1.39011e-07
-5.93932e-28
7.08745e-22
2.87819e-17
8.68807e-13
1.39011e-07
-5.78275e-28
7.09174e-22
2.87927e-17
8.69087e-13
1.39041e-07
-5.69121e-28
7.09426e-22
2.87991e-17
8.69252e-13
1.39059e-07
-5.08556e-28
7.11067e-22
2.88401e-17
8.70288e-13
1.39165e-07
-4.84306e-28
7.11729e-22
2.88568e-17
8.70711e-13
1.39207e-07
-3.4758e-28
7.15296e-22
2.89446e-17
8.72925e-13
1.39431e-07
-3.04243e-28
7.16428e-22
2.89729e-17
8.7365e-13
1.39505e-07
-4.54249e-28
7.10392e-22
2.88189e-17
8.71134e-13
1.39597e-07
-5.14061e-28
7.08168e-22
2.87635e-17
8.70187e-13
1.39617e-07
-7.34622e-27
5.06819e-22
2.38808e-17
7.70961e-13
1.35428e-07
-7.34665e-27
5.06868e-22
2.4025e-17
9.01014e-13
2.39264e-07
-5.14762e-28
7.08175e-22
2.89066e-17
1.00109e-12
2.44203e-07
-4.54839e-28
7.10402e-22
2.8962e-17
1.00195e-12
2.44157e-07
-3.04836e-28
7.16437e-22
2.9115e-17
1.00406e-12
2.43963e-07
-3.48174e-28
7.15304e-22
2.90866e-17
1.00324e-12
2.43856e-07
-4.84892e-28
7.11738e-22
2.89983e-17
1.00074e-12
2.43533e-07
-5.09145e-28
7.11076e-22
2.89815e-17
1.00027e-12
2.43472e-07
-5.69708e-28
7.09435e-22
2.89403e-17
9.991e-13
2.43318e-07
-5.78863e-28
7.09182e-22
2.89338e-17
9.98914e-13
2.43293e-07
-5.94522e-28
7.08753e-22
2.89229e-17
9.98597e-13
2.43249e-07
-5.9452e-28
7.08753e-22
2.89229e-17
9.98597e-13
2.43249e-07
-5.78862e-28
7.09182e-22
2.89338e-17
9.98914e-13
2.43293e-07
-5.69709e-28
7.09435e-22
2.89403e-17
9.991e-13
2.43318e-07
-5.09145e-28
7.11076e-22
2.89815e-17
1.00027e-12
2.43472e-07
-4.84895e-28
7.11738e-22
2.89983e-17
1.00074e-12
2.43533e-07
-3.48171e-28
7.15304e-22
2.90866e-17
1.00324e-12
2.43856e-07
-3.04836e-28
7.16437e-22
2.9115e-17
1.00406e-12
2.43963e-07
-4.54837e-28
7.10402e-22
2.8962e-17
1.00195e-12
2.44157e-07
-5.14758e-28
7.08175e-22
2.89066e-17
1.00109e-12
2.44203e-07
-7.34666e-27
5.06868e-22
2.4025e-17
9.01014e-13
2.39264e-07
-7.34695e-27
5.0707e-22
2.42998e-17
1.11101e-12
3.77457e-07
-5.15368e-28
7.08326e-22
2.91792e-17
1.21147e-12
3.82719e-07
-4.55313e-28
7.10556e-22
2.92343e-17
1.2122e-12
3.82632e-07
-3.05318e-28
7.16587e-22
2.93856e-17
1.21362e-12
3.82268e-07
-3.48654e-28
7.15455e-22
2.93569e-17
1.21267e-12
3.82121e-07
-4.85371e-28
7.11887e-22
2.92677e-17
1.20974e-12
3.81675e-07
-5.09624e-28
7.11225e-22
2.92507e-17
1.20919e-12
3.81591e-07
-5.70186e-28
7.09584e-22
2.92091e-17
1.20782e-12
3.81379e-07
-5.7934e-28
7.09332e-22
2.92026e-17
1.2076e-12
3.81344e-07
-5.95e-28
7.08903e-22
2.91915e-17
1.20723e-12
3.81283e-07
-5.94997e-28
7.08903e-22
2.91915e-17
1.20723e-12
3.81283e-07
-5.7934e-28
7.09332e-22
2.92026e-17
1.2076e-12
3.81344e-07
-5.70186e-28
7.09584e-22
2.92091e-17
1.20782e-12
3.81379e-07
-5.09624e-28
7.11225e-22
2.92507e-17
1.20919e-12
3.81591e-07
-4.85374e-28
7.11887e-22
2.92677e-17
1.20974e-12
3.81675e-07
-3.48652e-28
7.15455e-22
2.93569e-17
1.21267e-12
3.82121e-07
-3.05318e-28
7.16587e-22
2.93856e-17
1.21362e-12
3.82268e-07
-4.55311e-28
7.10556e-22
2.92343e-17
1.2122e-12
3.82632e-07
-5.15365e-28
7.08326e-22
2.91792e-17
1.21147e-12
3.82719e-07
-7.34695e-27
5.0707e-22
2.42998e-17
1.11101e-12
3.77457e-07
-7.34692e-27
5.07544e-22
2.4768e-17
1.42086e-12
5.49896e-07
-5.15715e-28
7.08737e-22
2.96426e-17
1.52076e-12
5.54946e-07
-4.55507e-28
7.1097e-22
2.96973e-17
1.52129e-12
5.54802e-07
-3.05525e-28
7.16995e-22
2.98457e-17
1.52167e-12
5.54167e-07
-3.4886e-28
7.15862e-22
2.98166e-17
1.52053e-12
5.5397e-07
-4.85576e-28
7.12293e-22
2.97258e-17
1.51698e-12
5.53365e-07
-5.09829e-28
7.11631e-22
2.97086e-17
1.51633e-12
5.53253e-07
-5.70391e-28
7.09989e-22
2.96662e-17
1.51467e-12
5.52967e-07
-5.79545e-28
7.09736e-22
2.96596e-17
1.51441e-12
5.52919e-07
-5.95205e-28
7.09307e-22
2.96484e-17
1.51395e-12
5.52837e-07
-5.95202e-28
7.09307e-22
2.96484e-17
1.51395e-12
5.52837e-07
-5.79545e-28
7.09736e-22
2.96596e-17
1.51441e-12
5.52919e-07
-5.70391e-28
7.09989e-22
2.96662e-17
1.51467e-12
5.52967e-07
-5.09829e-28
7.11631e-22
2.97086e-17
1.51633e-12
5.53253e-07
-4.85579e-28
7.12293e-22
2.97258e-17
1.51698e-12
5.53365e-07
-3.48857e-28
7.15862e-22
2.98166e-17
1.52053e-12
5.5397e-07
-3.05526e-28
7.16995e-22
2.98457e-17
1.52167e-12
5.54167e-07
-4.55506e-28
7.1097e-22
2.96973e-17
1.52129e-12
5.54802e-07
-5.15712e-28
7.08737e-22
2.96426e-17
1.52076e-12
5.54946e-07
-7.34692e-27
5.07544e-22
2.4768e-17
1.42086e-12
5.49896e-07
-7.34629e-27
5.08456e-22
2.55051e-17
1.85052e-12
7.56512e-07
-5.15534e-28
7.0957e-22
3.03707e-17
1.94835e-12
7.60688e-07
-4.55152e-28
7.11805e-22
3.04246e-17
1.94859e-12
7.60467e-07
-3.05191e-28
7.1782e-22
3.05685e-17
1.94744e-12
7.59433e-07
-3.48524e-28
7.16686e-22
3.05387e-17
1.94606e-12
7.59176e-07
-4.85244e-28
7.13114e-22
3.04455e-17
1.94165e-12
7.58362e-07
-5.09496e-28
7.12451e-22
3.04279e-17
1.94085e-12
7.58215e-07
-5.7006e-28
7.10808e-22
3.03844e-17
1.9388e-12
7.57834e-07
-5.79214e-28
7.10555e-22
3.03776e-17
1.93848e-12
7.57772e-07
-5.94874e-28
7.10125e-22
3.03661e-17
1.93791e-12
7.57662e-07
-5.94872e-28
7.10125e-22
3.03661e-17
1.93791e-12
7.57662e-07
-5.79214e-28
7.10555e-22
3.03776e-17
1.93848e-12
7.57772e-07
-5.7006e-28
7.10808e-22
3.03844e-17
1.9388e-12
7.57834e-07
-5.09497e-28
7.12451e-22
3.04279e-17
1.94085e-12
7.58215e-07
-4.85246e-28
7.13114e-22
3.04455e-17
1.94165e-12
7.58362e-07
-3.48522e-28
7.16686e-22
3.05387e-17
1.94606e-12
7.59176e-07
-3.05191e-28
7.1782e-22
3.05685e-17
1.94744e-12
7.59433e-07
-4.55151e-28
7.11805e-22
3.04246e-17
1.94859e-12
7.60467e-07
-5.15531e-28
7.0957e-22
3.03707e-17
1.94835e-12
7.60688e-07
-7.3463e-27
5.08455e-22
2.55051e-17
1.85052e-12
7.56512e-07
-7.34464e-27
5.10023e-22
2.65985e-17
2.41938e-12
9.96369e-07
-5.14418e-28
7.11036e-22
3.14487e-17
2.513e-12
9.9884e-07
-4.53843e-28
7.13274e-22
3.15015e-17
2.51284e-12
9.98519e-07
-3.03915e-28
7.19273e-22
3.16385e-17
2.50955e-12
9.9693e-07
-3.47249e-28
7.18137e-22
3.16076e-17
2.50784e-12
9.96599e-07
-4.83977e-28
7.14559e-22
3.15109e-17
2.50229e-12
9.95519e-07
-5.0823e-28
7.13895e-22
3.14927e-17
2.50131e-12
9.9533e-07
-5.68798e-28
7.12249e-22
3.14476e-17
2.49873e-12
9.94827e-07
-5.77953e-28
7.11996e-22
3.14406e-17
2.49833e-12
9.94747e-07
-5.93614e-28
7.11565e-22
3.14285e-17
2.49761e-12
9.94602e-07
-5.93611e-28
7.11565e-22
3.14285e-17
2.49761e-12
9.94602e-07
-5.77953e-28
7.11996e-22
3.14406e-17
2.49833e-12
9.94747e-07
-5.68798e-28
7.12249e-22
3.14476e-17
2.49873e-12
9.94827e-07
-5.08231e-28
7.13895e-22
3.14927e-17
2.50131e-12
9.9533e-07
-4.83979e-28
7.14559e-22
3.15109e-17
2.50229e-12
9.95519e-07
-3.47246e-28
7.18137e-22
3.16076e-17
2.50784e-12
9.96599e-07
-3.03916e-28
7.19273e-22
3.16385e-17
2.50955e-12
9.9693e-07
-4.53842e-28
7.13274e-22
3.15015e-17
2.51284e-12
9.98519e-07
-5.14416e-28
7.11036e-22
3.14487e-17
2.513e-12
9.9884e-07
-7.34465e-27
5.10023e-22
2.65985e-17
2.41938e-12
9.96369e-07
-7.34141e-27
5.12465e-22
2.80471e-17
2.98679e-12
9.94039e-07
-5.11826e-28
7.1335e-22
3.28755e-17
3.07619e-12
9.9656e-07
-4.5104e-28
7.15589e-22
3.29268e-17
3.07564e-12
9.96243e-07
-3.01166e-28
7.21564e-22
3.30546e-17
3.07022e-12
9.94676e-07
-3.44502e-28
7.20426e-22
3.30224e-17
3.06819e-12
9.94348e-07
-4.81246e-28
7.16837e-22
3.2921e-17
3.0615e-12
9.93279e-07
-5.05502e-28
7.16172e-22
3.29021e-17
3.06034e-12
9.93092e-07
-5.66077e-28
7.14521e-22
3.28548e-17
3.05724e-12
9.92594e-07
-5.75233e-28
7.14267e-22
3.28474e-17
3.05677e-12
9.92515e-07
-5.90897e-28
7.13835e-22
3.28348e-17
3.05589e-12
9.92371e-07
-5.90894e-28
7.13835e-22
3.28348e-17
3.05589e-12
9.92371e-07
-5.75233e-28
7.14267e-22
3.28474e-17
3.05677e-12
9.92515e-07
-5.66077e-28
7.14521e-22
3.28548e-17
3.05724e-12
9.92594e-07
-5.05503e-28
7.16172e-22
3.29021e-17
3.06034e-12
9.93092e-07
-4.81249e-28
7.16837e-22
3.2921e-17
3.0615e-12
9.93279e-07
-3.445e-28
7.20426e-22
3.30224e-17
3.06819e-12
9.94348e-07
-3.01167e-28
7.21564e-22
3.30546e-17
3.07022e-12
9.94676e-07
-4.51041e-28
7.15589e-22
3.29268e-17
3.07564e-12
9.96243e-07
-5.11825e-28
7.1335e-22
3.28755e-17
3.07619e-12
9.9656e-07
-7.34141e-27
5.12465e-22
2.80471e-17
2.98679e-12
9.94039e-07
-7.33588e-27
5.15998e-22
2.98499e-17
3.55272e-12
9.91783e-07
-5.07083e-28
7.16722e-22
3.46501e-17
3.63791e-12
9.94352e-07
-4.46071e-28
7.18961e-22
3.46994e-17
3.63696e-12
9.94039e-07
-2.96277e-28
7.24902e-22
3.48158e-17
3.62944e-12
9.92493e-07
-3.39618e-28
7.2376e-22
3.47819e-17
3.62709e-12
9.92168e-07
-4.76391e-28
7.20157e-22
3.46747e-17
3.61928e-12
9.9111e-07
-5.00652e-28
7.19489e-22
3.46548e-17
3.61794e-12
9.90924e-07
-5.61239e-28
7.17832e-22
3.46049e-17
3.61432e-12
9.90431e-07
-5.70398e-28
7.17577e-22
3.45971e-17
3.61377e-12
9.90352e-07
-5.86065e-28
7.17143e-22
3.45837e-17
3.61274e-12
9.90211e-07
-5.86062e-28
7.17143e-22
3.45837e-17
3.61274e-12
9.90211e-07
-5.70398e-28
7.17577e-22
3.45971e-17
3.61377e-12
9.90352e-07
-5.6124e-28
7.17832e-22
3.46049e-17
3.61432e-12
9.90431e-07
-5.00652e-28
7.19489e-22
3.46548e-17
3.61794e-12
9.90924e-07
-4.76394e-28
7.20157e-22
3.46747e-17
3.61928e-12
9.9111e-07
-3.39616e-28
7.2376e-22
3.47819e-17
3.62709e-12
9.92168e-07
-2.96278e-28
7.24902e-22
3.48158e-17
3.62944e-12
9.92493e-07
-4.46072e-28
7.18961e-22
3.46994e-17
3.63696e-12
9.94039e-07
-5.07083e-28
7.16722e-22
3.46501e-17
3.63791e-12
9.94352e-07
-7.33588e-27
5.15998e-22
2.98499e-17
3.55272e-12
9.91783e-07
-7.32722e-27
5.20839e-22
3.20056e-17
4.1171e-12
9.89595e-07
-4.99379e-28
7.21362e-22
3.67711e-17
4.19807e-12
9.92209e-07
-4.38126e-28
7.236e-22
3.6818e-17
4.19674e-12
9.919e-07
-2.8845e-28
7.29496e-22
3.69209e-17
4.18714e-12
9.90374e-07
-3.31801e-28
7.28349e-22
3.6885e-17
4.18447e-12
9.90052e-07
-4.68619e-28
7.24725e-22
3.67708e-17
4.17554e-12
9.89004e-07
-4.92887e-28
7.24055e-22
3.67499e-17
4.17402e-12
9.8882e-07
-5.53495e-28
7.22388e-22
3.66967e-17
4.16989e-12
9.88332e-07
-5.62656e-28
7.22132e-22
3.66885e-17
4.16926e-12
9.88254e-07
-5.78329e-28
7.21695e-22
3.66742e-17
4.16809e-12
9.88113e-07
-5.78327e-28
7.21695e-22
3.66742e-17
4.16809e-12
9.88113e-07
-5.62656e-28
7.22132e-22
3.66885e-17
4.16926e-12
9.88254e-07
-5.53495e-28
7.22388e-22
3.66967e-17
4.16989e-12
9.88332e-07
-4.92887e-28
7.24055e-22
3.67499e-17
4.17402e-12
9.8882e-07
-4.68622e-28
7.24725e-22
3.67708e-17
4.17554e-12
9.89004e-07
-3.31799e-28
7.28349e-22
3.6885e-17
4.18447e-12
9.90052e-07
-2.88452e-28
7.29496e-22
3.69209e-17
4.18714e-12
9.90374e-07
-4.38128e-28
7.236e-22
3.6818e-17
4.19674e-12
9.919e-07
-4.99379e-28
7.21362e-22
3.67711e-17
4.19807e-12
9.92209e-07
-7.32723e-27
5.20839e-22
3.20056e-17
4.1171e-12
9.89595e-07
-7.31445e-27
5.27204e-22
3.4513e-17
4.67986e-12
9.87469e-07
-4.87767e-28
7.27481e-22
3.92373e-17
4.7566e-12
9.90126e-07
-4.26264e-28
7.29716e-22
3.92815e-17
4.7549e-12
9.89821e-07
-2.76753e-28
7.35553e-22
3.93685e-17
4.74323e-12
9.88315e-07
-3.20119e-28
7.34398e-22
3.93304e-17
4.74024e-12
9.87995e-07
-4.57005e-28
7.30748e-22
3.92081e-17
4.73021e-12
9.86957e-07
-4.81284e-28
7.30073e-22
3.91859e-17
4.72851e-12
9.86775e-07
-5.41922e-28
7.28395e-22
3.91291e-17
4.72387e-12
9.86291e-07
-5.51088e-28
7.28137e-22
3.91203e-17
4.72316e-12
9.86214e-07
-5.6677e-28
7.27696e-22
3.91049e-17
4.72185e-12
9.86075e-07
-5.66767e-28
7.27696e-22
3.91049e-17
4.72185e-12
9.86075e-07
-5.51088e-28
7.28137e-22
3.91203e-17
4.72316e-12
9.86214e-07
-5.41922e-28
7.28395e-22
3.91291e-17
4.72387e-12
9.86291e-07
-4.81284e-28
7.30073e-22
3.91859e-17
4.72851e-12
9.86775e-07
-4.57008e-28
7.30748e-22
3.92081e-17
4.73021e-12
9.86957e-07
-3.20118e-28
7.34398e-22
3.93304e-17
4.74024e-12
9.87995e-07
-2.76755e-28
7.35553e-22
3.93685e-17
4.74323e-12
9.88315e-07
-4.26266e-28
7.29716e-22
3.92815e-17
4.7549e-12
9.89821e-07
-4.87768e-28
7.27481e-22
3.92373e-17
4.7566e-12
9.90126e-07
-7.31446e-27
5.27204e-22
3.4513e-17
4.67986e-12
9.87469e-07
-7.29645e-27
5.35305e-22
3.73707e-17
5.24089e-12
9.85401e-07
-4.71171e-28
7.35286e-22
4.20472e-17
5.31343e-12
9.881e-07
-4.09408e-28
7.37516e-22
4.20884e-17
5.31135e-12
9.87799e-07
-2.60124e-28
7.43279e-22
4.21573e-17
5.29764e-12
9.86311e-07
-3.03513e-28
7.42114e-22
4.21167e-17
5.29433e-12
9.85995e-07
-4.40495e-28
7.38431e-22
4.19852e-17
5.28321e-12
9.84966e-07
-4.64787e-28
7.3775e-22
4.19615e-17
5.28132e-12
9.84785e-07
-5.25469e-28
7.36056e-22
4.19005e-17
5.27619e-12
9.84306e-07
-5.34641e-28
7.35796e-22
4.18911e-17
5.2754e-12
9.84229e-07
-5.50336e-28
7.35351e-22
4.18745e-17
5.27394e-12
9.84091e-07
-5.50333e-28
7.35351e-22
4.18745e-17
5.27394e-12
9.84091e-07
-5.34641e-28
7.35796e-22
4.18911e-17
5.2754e-12
9.84229e-07
-5.25469e-28
7.36056e-22
4.19005e-17
5.27619e-12
9.84306e-07
-4.64788e-28
7.3775e-22
4.19615e-17
5.28132e-12
9.84785e-07
-4.40497e-28
7.38431e-22
4.19852e-17
5.28321e-12
9.84966e-07
-3.03512e-28
7.42114e-22
4.21167e-17
5.29433e-12
9.85995e-07
-2.60126e-28
7.43278e-22
4.21573e-17
5.29764e-12
9.86311e-07
-4.09411e-28
7.37515e-22
4.20884e-17
5.31135e-12
9.87799e-07
-4.71172e-28
7.35286e-22
4.20472e-17
5.31343e-12
9.881e-07
-7.29645e-27
5.35305e-22
3.73707e-17
5.24089e-12
9.85401e-07
-7.27194e-27
5.45358e-22
4.05771e-17
5.80013e-12
9.83388e-07
-4.48377e-28
7.44985e-22
4.51994e-17
5.86845e-12
9.86126e-07
-3.86348e-28
7.47207e-22
4.52372e-17
5.866e-12
9.85828e-07
-2.37366e-28
7.52879e-22
4.52859e-17
5.85027e-12
9.84359e-07
-2.80787e-28
7.51703e-22
4.52424e-17
5.84666e-12
9.84045e-07
-4.179e-28
7.47977e-22
4.51006e-17
5.83444e-12
9.83026e-07
-4.42212e-28
7.4729e-22
4.50753e-17
5.83239e-12
9.82847e-07
-5.02953e-28
7.45577e-22
4.50096e-17
5.82675e-12
9.82371e-07
-5.12134e-28
7.45314e-22
4.49996e-17
5.82589e-12
9.82295e-07
-5.27846e-28
7.44863e-22
4.49816e-17
5.82429e-12
9.82158e-07
-5.27843e-28
7.44863e-22
4.49816e-17
5.82429e-12
9.82158e-07
-5.12134e-28
7.45314e-22
4.49996e-17
5.82589e-12
9.82295e-07
-5.02953e-28
7.45577e-22
4.50096e-17
5.82675e-12
9.82371e-07
-4.42213e-28
7.4729e-22
4.50753e-17
5.83239e-12
9.82847e-07
-4.17902e-28
7.47977e-22
4.51006e-17
5.83444e-12
9.83026e-07
-2.80786e-28
7.51703e-22
4.52424e-17
5.84666e-12
9.84045e-07
-2.37368e-28
7.52878e-22
4.52859e-17
5.85027e-12
9.84359e-07
-3.86352e-28
7.47206e-22
4.52372e-17
5.866e-12
9.85828e-07
-4.48379e-28
7.44985e-22
4.51994e-17
5.86845e-12
9.86126e-07
-7.27194e-27
5.45358e-22
4.05771e-17
5.80013e-12
9.83388e-07
-7.23954e-27
5.57573e-22
4.41308e-17
6.35749e-12
9.81424e-07
-4.18038e-28
7.56784e-22
4.86923e-17
6.42159e-12
9.842e-07
-3.55742e-28
7.58995e-22
4.87262e-17
6.41878e-12
9.83906e-07
-2.07152e-28
7.64557e-22
4.87527e-17
6.40105e-12
9.82454e-07
-2.50617e-28
7.63367e-22
4.8706e-17
6.39713e-12
9.82142e-07
-3.87903e-28
7.59589e-22
4.85529e-17
6.38384e-12
9.81132e-07
-4.12242e-28
7.58895e-22
4.85258e-17
6.38161e-12
9.80954e-07
-4.73061e-28
7.57158e-22
4.8455e-17
6.37548e-12
9.80483e-07
-4.82254e-28
7.56892e-22
4.84441e-17
6.37455e-12
9.80408e-07
-4.97988e-28
7.56435e-22
4.84247e-17
6.3728e-12
9.80272e-07
-4.97986e-28
7.56435e-22
4.84247e-17
6.3728e-12
9.80272e-07
-4.82254e-28
7.56892e-22
4.84441e-17
6.37455e-12
9.80408e-07
-4.73062e-28
7.57158e-22
4.8455e-17
6.37548e-12
9.80483e-07
-4.12243e-28
7.58895e-22
4.85258e-17
6.38161e-12
9.80954e-07
-3.87906e-28
7.59589e-22
4.85529e-17
6.38384e-12
9.81132e-07
-2.50616e-28
7.63367e-22
4.8706e-17
6.39713e-12
9.82142e-07
-2.07155e-28
7.64557e-22
4.87526e-17
6.40105e-12
9.82454e-07
-3.55746e-28
7.58995e-22
4.87262e-17
6.41878e-12
9.83906e-07
-4.18041e-28
7.56783e-22
4.86923e-17
6.42159e-12
9.842e-07
-7.23954e-27
5.57573e-22
4.41308e-17
6.35749e-12
9.81424e-07
-7.19769e-27
5.72163e-22
4.803e-17
6.91286e-12
9.79505e-07
-3.78677e-28
7.70888e-22
5.25243e-17
6.97275e-12
9.82317e-07
-3.16114e-28
7.73085e-22
5.2554e-17
6.96958e-12
9.82026e-07
-1.68023e-28
7.78516e-22
5.2556e-17
6.94988e-12
9.80591e-07
-2.11546e-28
7.7731e-22
5.25059e-17
6.94567e-12
9.80282e-07
-3.49056e-28
7.73471e-22
5.23404e-17
6.9313e-12
9.7928e-07
-3.73429e-28
7.72767e-22
5.23114e-17
6.9289e-12
9.79104e-07
-4.3435e-28
7.71002e-22
5.22348e-17
6.92228e-12
9.78637e-07
-4.43557e-28
7.70731e-22
5.22232e-17
6.92128e-12
9.78562e-07
-4.59321e-28
7.70266e-22
5.22021e-17
6.91939e-12
9.78428e-07
-4.59319e-28
7.70266e-22
5.22021e-17
6.91939e-12
9.78428e-07
-4.43558e-28
7.70731e-22
5.22232e-17
6.92128e-12
9.78562e-07
-4.34351e-28
7.71002e-22
5.22348e-17
6.92228e-12
9.78637e-07
-3.73431e-28
7.72767e-22
5.23114e-17
6.9289e-12
9.79104e-07
-3.49059e-28
7.73471e-22
5.23404e-17
6.9313e-12
9.7928e-07
-2.11546e-28
7.7731e-22
5.25059e-17
6.94567e-12
9.80282e-07
-1.68027e-28
7.78516e-22
5.2556e-17
6.94988e-12
9.80591e-07
-3.16119e-28
7.73084e-22
5.2554e-17
6.96958e-12
9.82026e-07
-3.78681e-28
7.70887e-22
5.25243e-17
6.97275e-12
9.82317e-07
-7.1977e-27
5.72163e-22
4.803e-17
6.91286e-12
9.79505e-07
-7.14474e-27
5.89337e-22
5.22732e-17
7.46616e-12
9.77622e-07
-3.28681e-28
7.875e-22
5.66935e-17
7.52184e-12
9.80469e-07
-2.65855e-28
7.8968e-22
5.67187e-17
7.51832e-12
9.80181e-07
-1.1839e-28
7.94959e-22
5.66942e-17
7.49667e-12
9.78763e-07
-1.61986e-28
7.93733e-22
5.66404e-17
7.49216e-12
9.78456e-07
-2.99781e-28
7.89821e-22
5.64614e-17
7.47674e-12
9.77463e-07
-3.24197e-28
7.89106e-22
5.64303e-17
7.47417e-12
9.77288e-07
-3.85247e-28
7.87308e-22
5.63476e-17
7.46706e-12
9.76824e-07
-3.94473e-28
7.87033e-22
5.63351e-17
7.46599e-12
9.7675e-07
-4.10274e-28
7.86558e-22
5.63122e-17
7.46396e-12
9.76617e-07
-4.10272e-28
7.86558e-22
5.63122e-17
7.46396e-12
9.76617e-07
-3.94473e-28
7.87033e-22
5.63351e-17
7.46599e-12
9.7675e-07
-3.85248e-28
7.87308e-22
5.63476e-17
7.46706e-12
9.76824e-07
-3.24199e-28
7.89106e-22
5.64303e-17
7.47417e-12
9.77288e-07
-2.99784e-28
7.89821e-22
5.64614e-17
7.47674e-12
9.77463e-07
-1.61987e-28
7.93733e-22
5.66404e-17
7.49216e-12
9.78456e-07
-1.18394e-28
7.94959e-22
5.66942e-17
7.49667e-12
9.78763e-07
-2.65861e-28
7.8968e-22
5.67187e-17
7.51832e-12
9.80181e-07
-3.28685e-28
7.875e-22
5.66935e-17
7.52184e-12
9.80469e-07
-7.14474e-27
5.89337e-22
5.22732e-17
7.46616e-12
9.77622e-07
-7.07884e-27
6.09304e-22
5.68584e-17
8.01726e-12
9.75739e-07
-2.66304e-28
8.06824e-22
6.11981e-17
8.06874e-12
9.7862e-07
-2.03225e-28
8.08982e-22
6.12184e-17
8.06487e-12
9.78336e-07
-5.65317e-29
8.14085e-22
6.11655e-17
8.04131e-12
9.76934e-07
-1.0022e-28
8.12836e-22
6.11077e-17
8.0365e-12
9.76631e-07
-2.38368e-28
8.0884e-22
6.09142e-17
8.02003e-12
9.75645e-07
-2.62838e-28
8.08112e-22
6.08808e-17
8.0173e-12
9.75472e-07
-3.24048e-28
8.06276e-22
6.07915e-17
8.00971e-12
9.75012e-07
-3.33297e-28
8.05995e-22
6.0778e-17
8.00857e-12
9.74939e-07
-3.49145e-28
8.0551e-22
6.07533e-17
8.0064e-12
9.74806e-07
-3.49143e-28
8.0551e-22
6.07533e-17
8.0064e-12
9.74806e-07
-3.33298e-28
8.05995e-22
6.0778e-17
8.00857e-12
9.74939e-07
-3.24049e-28
8.06276e-22
6.07915e-17
8.00971e-12
9.75012e-07
-2.6284e-28
8.08112e-22
6.08808e-17
8.0173e-12
9.75472e-07
-2.38371e-28
8.0884e-22
6.09142e-17
8.02003e-12
9.75645e-07
-1.0022e-28
8.12836e-22
6.11077e-17
8.0365e-12
9.76631e-07
-5.65362e-29
8.14085e-22
6.11655e-17
8.04131e-12
9.76934e-07
-2.03231e-28
8.08982e-22
6.12184e-17
8.06487e-12
9.78336e-07
-2.66309e-28
8.06823e-22
6.11981e-17
8.06874e-12
9.7862e-07
-7.07885e-27
6.09304e-22
5.68584e-17
8.01726e-12
9.75739e-07
0.000514237
0.000101678
3.29724e-06
2.04329e-08
1.1122e-11
9.68111e-14
1.08035e-13
1.08562e-13
1.08676e-13
1.08696e-13
1.08705e-13
1.08761e-13
1.09044e-13
1.09383e-13
1.12154e-13
1.145e-13
1.39028e-13
1.52213e-13
4.86387e-13
5.68229e-13
0.000562169
0.000112349
3.76723e-06
2.4897e-08
1.76234e-11
9.77252e-14
1.08018e-13
1.08557e-13
1.08674e-13
1.08694e-13
1.087e-13
1.08746e-13
1.09035e-13
1.0938e-13
1.12199e-13
1.14574e-13
1.39428e-13
1.52701e-13
4.90782e-13
5.73601e-13
0.000562424
0.000112373
3.76572e-06
2.488e-08
1.76029e-11
9.7725e-14
1.08017e-13
1.08557e-13
1.08674e-13
1.08695e-13
1.08701e-13
1.08747e-13
1.09036e-13
1.09381e-13
1.12201e-13
1.14577e-13
1.39436e-13
1.52709e-13
4.90826e-13
5.73645e-13
0.000563182
0.000112301
3.74573e-06
2.46657e-08
1.73363e-11
9.77433e-14
1.08017e-13
1.08557e-13
1.08674e-13
1.08695e-13
1.08701e-13
1.08751e-13
1.09041e-13
1.09386e-13
1.1221e-13
1.14587e-13
1.39462e-13
1.52737e-13
4.90964e-13
5.73767e-13
0.000562696
0.000112182
3.73939e-06
2.46047e-08
1.72429e-11
9.77263e-14
1.08017e-13
1.08557e-13
1.08674e-13
1.08695e-13
1.08701e-13
1.08751e-13
1.09041e-13
1.09386e-13
1.1221e-13
1.14587e-13
1.39463e-13
1.52738e-13
4.90967e-13
5.73769e-13
0.000561323
0.000111791
3.71722e-06
2.43909e-08
1.69233e-11
9.76717e-14
1.08017e-13
1.08557e-13
1.08674e-13
1.08695e-13
1.08701e-13
1.08752e-13
1.09041e-13
1.09387e-13
1.12211e-13
1.14588e-13
1.39464e-13
1.52739e-13
4.90972e-13
5.73772e-13
0.000561046
0.000111723
3.71378e-06
2.43581e-08
1.68723e-11
9.76614e-14
1.08017e-13
1.08557e-13
1.08674e-13
1.08695e-13
1.08701e-13
1.08752e-13
1.09041e-13
1.09387e-13
1.12211e-13
1.14588e-13
1.39464e-13
1.52739e-13
4.90973e-13
5.73773e-13
0.000560402
0.000111544
3.70387e-06
2.42632e-08
1.67279e-11
9.76332e-14
1.08017e-13
1.08557e-13
1.08674e-13
1.08695e-13
1.08701e-13
1.08752e-13
1.09041e-13
1.09387e-13
1.12211e-13
1.14588e-13
1.39464e-13
1.52739e-13
4.90973e-13
5.73773e-13
0.000560293
0.000111517
3.7025e-06
2.42502e-08
1.67074e-11
9.76289e-14
1.08017e-13
1.08557e-13
1.08674e-13
1.08695e-13
1.08701e-13
1.08752e-13
1.09041e-13
1.09387e-13
1.12211e-13
1.14588e-13
1.39464e-13
1.52739e-13
4.90973e-13
5.73773e-13
0.000560116
0.000111468
3.69977e-06
2.42241e-08
1.66674e-11
9.76207e-14
1.08017e-13
1.08557e-13
1.08674e-13
1.08695e-13
1.08701e-13
1.08752e-13
1.09041e-13
1.09387e-13
1.12211e-13
1.14588e-13
1.39464e-13
1.52739e-13
4.90973e-13
5.73773e-13
0.000560116
0.000111468
3.69977e-06
2.42241e-08
1.66674e-11
9.76207e-14
1.08017e-13
1.08557e-13
1.08674e-13
1.08695e-13
1.08701e-13
1.08752e-13
1.09041e-13
1.09387e-13
1.12211e-13
1.14588e-13
1.39464e-13
1.52739e-13
4.90973e-13
5.73773e-13
0.000560293
0.000111517
3.7025e-06
2.42502e-08
1.67074e-11
9.76289e-14
1.08017e-13
1.08557e-13
1.08674e-13
1.08695e-13
1.08701e-13
1.08752e-13
1.09041e-13
1.09387e-13
1.12211e-13
1.14588e-13
1.39464e-13
1.52739e-13
4.90973e-13
5.73773e-13
0.000560402
0.000111544
3.70387e-06
2.42632e-08
1.67279e-11
9.76332e-14
1.08017e-13
1.08557e-13
1.08674e-13
1.08695e-13
1.08701e-13
1.08752e-13
1.09041e-13
1.09387e-13
1.12211e-13
1.14588e-13
1.39464e-13
1.52739e-13
4.90973e-13
5.73773e-13
0.000561046
0.000111723
3.71378e-06
2.43581e-08
1.68723e-11
9.76614e-14
1.08017e-13
1.08557e-13
1.08674e-13
1.08695e-13
1.08701e-13
1.08752e-13
1.09041e-13
1.09387e-13
1.12211e-13
1.14588e-13
1.39464e-13
1.52739e-13
4.90973e-13
5.73773e-13
0.000561323
0.000111791
3.71722e-06
2.43909e-08
1.69233e-11
9.76717e-14
1.08017e-13
1.08557e-13
1.08674e-13
1.08695e-13
1.08701e-13
1.08752e-13
1.09041e-13
1.09387e-13
1.12211e-13
1.14588e-13
1.39464e-13
1.52739e-13
4.90972e-13
5.73772e-13
0.000562696
0.000112182
3.73939e-06
2.46047e-08
1.72429e-11
9.77263e-14
1.08017e-13
1.08557e-13
1.08674e-13
1.08695e-13
1.08701e-13
1.08751e-13
1.09041e-13
1.09386e-13
1.1221e-13
1.14587e-13
1.39463e-13
1.52738e-13
4.90967e-13
5.73769e-13
0.000563182
0.000112301
3.74573e-06
2.46657e-08
1.73363e-11
9.77433e-14
1.08017e-13
1.08557e-13
1.08674e-13
1.08695e-13
1.08701e-13
1.08751e-13
1.09041e-13
1.09386e-13
1.1221e-13
1.14587e-13
1.39462e-13
1.52737e-13
4.90964e-13
5.73767e-13
0.000562424
0.000112373
3.76572e-06
2.488e-08
1.76029e-11
9.7725e-14
1.08017e-13
1.08557e-13
1.08674e-13
1.08695e-13
1.08701e-13
1.08747e-13
1.09036e-13
1.09381e-13
1.12201e-13
1.14577e-13
1.39436e-13
1.52709e-13
4.90826e-13
5.73645e-13
0.000562169
0.000112349
3.76723e-06
2.4897e-08
1.76234e-11
9.77252e-14
1.08018e-13
1.08557e-13
1.08674e-13
1.08694e-13
1.087e-13
1.08746e-13
1.09035e-13
1.0938e-13
1.12199e-13
1.14574e-13
1.39428e-13
1.52701e-13
4.90782e-13
5.73601e-13
0.000514237
0.000101678
3.29724e-06
2.04329e-08
1.1122e-11
9.68111e-14
1.08035e-13
1.08562e-13
1.08676e-13
1.08696e-13
1.08705e-13
1.08761e-13
1.09044e-13
1.09383e-13
1.12154e-13
1.145e-13
1.39028e-13
1.52213e-13
4.86387e-13
5.68229e-13
0.00889303
0.00241495
0.000116092
1.03013e-06
1.29568e-09
4.72017e-12
4.76714e-12
4.79345e-12
4.79916e-12
4.8002e-12
4.80061e-12
4.80317e-12
4.81594e-12
4.83112e-12
4.95494e-12
5.05896e-12
6.14561e-12
6.72346e-12
2.13458e-11
2.48501e-11
0.00950285
0.00260947
0.00012896
1.19313e-06
1.62055e-09
4.81986e-12
4.76627e-12
4.7932e-12