/*--------------------------------*- C++ -*----------------------------------*\
  =========                 |
  \\      /  F ield         | OpenFOAM: The Open Source CFD Toolbox
   \\    /   O peration     | Website:  https://openfoam.org
    \\  /    A nd           | Version:  8
     \\/     M anipulation  |
\*---------------------------------------------------------------------------*/
FoamFile
{
    version     2.0;
    format      ascii;
    class       volScalarField;
    location    "2.2";
    object      H2;
}
// * * * * * * * * * * * * * * * * * * * * * * * * * * * * * * * * * * * * * //

dimensions      [0 1 -1 0 0 0 0];

internalField   nonuniform List<scalar> 
180000
(
-2.38491e-28
-9.05687e-24
-2.9685e-19
-7.88101e-15
-1.51231e-10
-2.59033e-28
-9.72786e-24
-3.13949e-19
-8.12791e-15
-1.47398e-10
-2.59656e-28
-9.74856e-24
-3.14504e-19
-8.1381e-15
-1.47437e-10
-2.61758e-28
-9.81883e-24
-3.16399e-19
-8.17291e-15
-1.47548e-10
-2.61842e-28
-9.82172e-24
-3.16482e-19
-8.17487e-15
-1.47587e-10
-2.62052e-28
-9.82916e-24
-3.16706e-19
-8.18048e-15
-1.47708e-10
-2.62067e-28
-9.82972e-24
-3.16725e-19
-8.18109e-15
-1.47727e-10
-2.62104e-28
-9.8312e-24
-3.16776e-19
-8.18269e-15
-1.47775e-10
-2.62107e-28
-9.83134e-24
-3.16781e-19
-8.1829e-15
-1.47783e-10
-2.62114e-28
-9.83164e-24
-3.16792e-19
-8.18328e-15
-1.47795e-10
-2.62114e-28
-9.83164e-24
-3.16792e-19
-8.18328e-15
-1.47795e-10
-2.62107e-28
-9.83134e-24
-3.16781e-19
-8.1829e-15
-1.47783e-10
-2.62104e-28
-9.8312e-24
-3.16776e-19
-8.18269e-15
-1.47775e-10
-2.62067e-28
-9.82972e-24
-3.16725e-19
-8.18109e-15
-1.47727e-10
-2.62052e-28
-9.82916e-24
-3.16706e-19
-8.18048e-15
-1.47708e-10
-2.61842e-28
-9.82172e-24
-3.16482e-19
-8.17487e-15
-1.47587e-10
-2.61758e-28
-9.81883e-24
-3.16399e-19
-8.17291e-15
-1.47548e-10
-2.59656e-28
-9.74856e-24
-3.14504e-19
-8.1381e-15
-1.47437e-10
-2.59033e-28
-9.72786e-24
-3.13949e-19
-8.12791e-15
-1.47398e-10
-2.38491e-28
-9.05687e-24
-2.96851e-19
-7.88101e-15
-1.51231e-10
-2.38484e-28
-9.0565e-24
-2.96811e-19
-7.85562e-15
-1.07619e-10
-2.59026e-28
-9.72746e-24
-3.13904e-19
-8.0961e-15
-9.23711e-11
-2.59649e-28
-9.74815e-24
-3.1446e-19
-8.10622e-15
-9.22652e-11
-2.61751e-28
-9.81841e-24
-3.16354e-19
-8.14082e-15
-9.19139e-11
-2.61835e-28
-9.82131e-24
-3.16438e-19
-8.14281e-15
-9.19888e-11
-2.62045e-28
-9.82875e-24
-3.16661e-19
-8.14852e-15
-9.22545e-11
-2.62059e-28
-9.82931e-24
-3.1668e-19
-8.14915e-15
-9.22981e-11
-2.62097e-28
-9.83078e-24
-3.16731e-19
-8.1508e-15
-9.24162e-11
-2.621e-28
-9.83093e-24
-3.16737e-19
-8.15101e-15
-9.24329e-11
-2.62107e-28
-9.83122e-24
-3.16748e-19
-8.15141e-15
-9.24633e-11
-2.62107e-28
-9.83122e-24
-3.16748e-19
-8.15141e-15
-9.24633e-11
-2.621e-28
-9.83093e-24
-3.16737e-19
-8.15101e-15
-9.24329e-11
-2.62097e-28
-9.83078e-24
-3.16731e-19
-8.1508e-15
-9.24162e-11
-2.62059e-28
-9.82931e-24
-3.1668e-19
-8.14915e-15
-9.22981e-11
-2.62045e-28
-9.82875e-24
-3.16661e-19
-8.14852e-15
-9.22545e-11
-2.61835e-28
-9.82131e-24
-3.16438e-19
-8.14281e-15
-9.19888e-11
-2.61751e-28
-9.81841e-24
-3.16354e-19
-8.14082e-15
-9.19139e-11
-2.59649e-28
-9.74815e-24
-3.1446e-19
-8.10622e-15
-9.22652e-11
-2.59026e-28
-9.72746e-24
-3.13904e-19
-8.0961e-15
-9.23711e-11
-2.38484e-28
-9.0565e-24
-2.96811e-19
-7.85562e-15
-1.07619e-10
-2.38478e-28
-9.05563e-24
-2.96366e-19
-7.23824e-15
9.1415e-10
-2.59019e-28
-9.7265e-24
-3.13409e-19
-7.40128e-15
1.06045e-09
-2.59643e-28
-9.7472e-24
-3.13964e-19
-7.4107e-15
1.06199e-09
-2.61744e-28
-9.81746e-24
-3.15859e-19
-7.44386e-15
1.06675e-09
-2.61829e-28
-9.82035e-24
-3.15943e-19
-7.4463e-15
1.06615e-09
-2.62039e-28
-9.82779e-24
-3.16168e-19
-7.45389e-15
1.06373e-09
-2.62053e-28
-9.82835e-24
-3.16188e-19
-7.45478e-15
1.06336e-09
-2.6209e-28
-9.82983e-24
-3.16239e-19
-7.45728e-15
1.06223e-09
-2.62093e-28
-9.82997e-24
-3.16245e-19
-7.4576e-15
1.06208e-09
-2.621e-28
-9.83027e-24
-3.16256e-19
-7.45822e-15
1.06179e-09
-2.621e-28
-9.83027e-24
-3.16256e-19
-7.45822e-15
1.06179e-09
-2.62093e-28
-9.82997e-24
-3.16245e-19
-7.4576e-15
1.06208e-09
-2.6209e-28
-9.82983e-24
-3.16239e-19
-7.45728e-15
1.06223e-09
-2.62053e-28
-9.82835e-24
-3.16188e-19
-7.45478e-15
1.06336e-09
-2.62039e-28
-9.82779e-24
-3.16168e-19
-7.45389e-15
1.06373e-09
-2.61829e-28
-9.82035e-24
-3.15943e-19
-7.4463e-15
1.06615e-09
-2.61744e-28
-9.81746e-24
-3.15859e-19
-7.44386e-15
1.06675e-09
-2.59643e-28
-9.7472e-24
-3.13964e-19
-7.4107e-15
1.06199e-09
-2.59019e-28
-9.7265e-24
-3.13409e-19
-7.40128e-15
1.06045e-09
-2.38478e-28
-9.05563e-24
-2.96366e-19
-7.23824e-15
9.1415e-10
-2.3847e-28
-9.05221e-24
-2.92861e-19
-2.43296e-15
8.12033e-09
-2.5901e-28
-9.72283e-24
-3.09641e-19
-2.21369e-15
8.85077e-09
-2.59634e-28
-9.74354e-24
-3.10196e-19
-2.22063e-15
8.85783e-09
-2.61736e-28
-9.81379e-24
-3.12098e-19
-2.25165e-15
8.87932e-09
-2.6182e-28
-9.81669e-24
-3.12185e-19
-2.25695e-15
8.87595e-09
-2.6203e-28
-9.82414e-24
-3.12423e-19
-2.27649e-15
8.86235e-09
-2.62044e-28
-9.8247e-24
-3.12444e-19
-2.279e-15
8.8603e-09
-2.62082e-28
-9.82618e-24
-3.12502e-19
-2.28686e-15
8.85391e-09
-2.62085e-28
-9.82633e-24
-3.12508e-19
-2.2878e-15
8.85312e-09
-2.62092e-28
-9.82663e-24
-3.12521e-19
-2.28985e-15
8.85143e-09
-2.62092e-28
-9.82663e-24
-3.12521e-19
-2.28985e-15
8.85143e-09
-2.62085e-28
-9.82633e-24
-3.12508e-19
-2.2878e-15
8.85312e-09
-2.62082e-28
-9.82618e-24
-3.12502e-19
-2.28686e-15
8.85391e-09
-2.62044e-28
-9.8247e-24
-3.12444e-19
-2.279e-15
8.8603e-09
-2.6203e-28
-9.82414e-24
-3.12423e-19
-2.27649e-15
8.86235e-09
-2.6182e-28
-9.81669e-24
-3.12185e-19
-2.25695e-15
8.87595e-09
-2.61736e-28
-9.81379e-24
-3.12098e-19
-2.25165e-15
8.87932e-09
-2.59634e-28
-9.74354e-24
-3.10196e-19
-2.22063e-15
8.85783e-09
-2.5901e-28
-9.72283e-24
-3.09641e-19
-2.21369e-15
8.85077e-09
-2.3847e-28
-9.05221e-24
-2.92861e-19
-2.43296e-15
8.12033e-09
-2.38453e-28
-9.03841e-24
-2.76659e-19
1.75183e-14
3.41219e-08
-2.58992e-28
-9.70836e-24
-2.92636e-19
1.87918e-14
3.62198e-08
-2.59616e-28
-9.72908e-24
-2.93193e-19
1.87887e-14
3.62376e-08
-2.61718e-28
-9.79939e-24
-2.95146e-19
1.8746e-14
3.629e-08
-2.61802e-28
-9.8023e-24
-2.95245e-19
1.87305e-14
3.62789e-08
-2.62012e-28
-9.80981e-24
-2.95537e-19
1.86683e-14
3.62342e-08
-2.62027e-28
-9.81038e-24
-2.95565e-19
1.86601e-14
3.62276e-08
-2.62064e-28
-9.81188e-24
-2.95646e-19
1.86332e-14
3.62066e-08
-2.62067e-28
-9.81203e-24
-2.95655e-19
1.86301e-14
3.62041e-08
-2.62074e-28
-9.81233e-24
-2.95674e-19
1.8623e-14
3.61985e-08
-2.62074e-28
-9.81233e-24
-2.95674e-19
1.8623e-14
3.61985e-08
-2.62067e-28
-9.81203e-24
-2.95655e-19
1.86301e-14
3.62041e-08
-2.62064e-28
-9.81188e-24
-2.95646e-19
1.86332e-14
3.62066e-08
-2.62027e-28
-9.81038e-24
-2.95565e-19
1.86601e-14
3.62276e-08
-2.62012e-28
-9.80981e-24
-2.95537e-19
1.86683e-14
3.62342e-08
-2.61802e-28
-9.8023e-24
-2.95245e-19
1.87305e-14
3.62789e-08
-2.61718e-28
-9.79939e-24
-2.95146e-19
1.8746e-14
3.629e-08
-2.59616e-28
-9.72908e-24
-2.93193e-19
1.87887e-14
3.62376e-08
-2.58992e-28
-9.70836e-24
-2.92636e-19
1.87918e-14
3.62198e-08
-2.38453e-28
-9.03841e-24
-2.76659e-19
1.75183e-14
3.41219e-08
-2.38407e-28
-8.99237e-24
-2.25054e-19
7.30964e-14
9.51608e-08
-2.58944e-28
-9.6609e-24
-2.39367e-19
7.62825e-14
9.92296e-08
-2.59568e-28
-9.68165e-24
-2.39943e-19
7.6278e-14
9.92578e-08
-2.6167e-28
-9.75222e-24
-2.42088e-19
7.61628e-14
9.93314e-08
-2.61755e-28
-9.75517e-24
-2.42225e-19
7.6122e-14
9.93056e-08
-2.61965e-28
-9.76287e-24
-2.42678e-19
7.59534e-14
9.92022e-08
-2.61979e-28
-9.76346e-24
-2.42725e-19
7.59315e-14
9.91871e-08
-2.62017e-28
-9.76504e-24
-2.42875e-19
7.58577e-14
9.91388e-08
-2.6202e-28
-9.76519e-24
-2.42892e-19
7.58493e-14
9.9133e-08
-2.62027e-28
-9.76552e-24
-2.4293e-19
7.58294e-14
9.912e-08
-2.62027e-28
-9.76552e-24
-2.4293e-19
7.58294e-14
9.912e-08
-2.6202e-28
-9.76519e-24
-2.42892e-19
7.58493e-14
9.9133e-08
-2.62017e-28
-9.76504e-24
-2.42875e-19
7.58577e-14
9.91388e-08
-2.61979e-28
-9.76346e-24
-2.42725e-19
7.59315e-14
9.91871e-08
-2.61965e-28
-9.76287e-24
-2.42678e-19
7.59534e-14
9.92022e-08
-2.61755e-28
-9.75517e-24
-2.42225e-19
7.6122e-14
9.93056e-08
-2.6167e-28
-9.75222e-24
-2.42088e-19
7.61628e-14
9.93314e-08
-2.59568e-28
-9.68165e-24
-2.39943e-19
7.6278e-14
9.92578e-08
-2.58944e-28
-9.6609e-24
-2.39367e-19
7.62825e-14
9.92296e-08
-2.38407e-28
-8.99237e-24
-2.25054e-19
7.30964e-14
9.51608e-08
-2.38279e-28
-8.86724e-24
-9.78273e-20
1.91665e-13
2.02871e-07
-2.58814e-28
-9.53354e-24
-1.09655e-19
1.97335e-13
2.08801e-07
-2.59439e-28
-9.5544e-24
-1.10295e-19
1.9731e-13
2.08829e-07
-2.61542e-28
-9.62575e-24
-1.12978e-19
1.96971e-13
2.08862e-07
-2.61626e-28
-9.62881e-24
-1.13202e-19
1.9688e-13
2.08814e-07
-2.61837e-28
-9.63701e-24
-1.14032e-19
1.96501e-13
2.08621e-07
-2.61852e-28
-9.63765e-24
-1.14125e-19
1.96453e-13
2.08593e-07
-2.6189e-28
-9.63945e-24
-1.14436e-19
1.96287e-13
2.08504e-07
-2.61893e-28
-9.63962e-24
-1.1447e-19
1.96269e-13
2.08493e-07
-2.619e-28
-9.64001e-24
-1.14552e-19
1.96224e-13
2.08469e-07
-2.619e-28
-9.64001e-24
-1.14552e-19
1.96224e-13
2.08469e-07
-2.61893e-28
-9.63962e-24
-1.1447e-19
1.96269e-13
2.08493e-07
-2.6189e-28
-9.63945e-24
-1.14436e-19
1.96287e-13
2.08504e-07
-2.61852e-28
-9.63765e-24
-1.14125e-19
1.96453e-13
2.08593e-07
-2.61837e-28
-9.63701e-24
-1.14032e-19
1.96501e-13
2.08621e-07
-2.61626e-28
-9.62881e-24
-1.13202e-19
1.96881e-13
2.08814e-07
-2.61542e-28
-9.62575e-24
-1.12978e-19
1.96971e-13
2.08862e-07
-2.59439e-28
-9.5544e-24
-1.10295e-19
1.9731e-13
2.08829e-07
-2.58814e-28
-9.53354e-24
-1.09655e-19
1.97335e-13
2.08801e-07
-2.38279e-28
-8.86724e-24
-9.78274e-20
1.91665e-13
2.02871e-07
-2.37966e-28
-8.57953e-24
1.63996e-19
4.0245e-13
3.60248e-07
-2.58498e-28
-9.24351e-24
1.54771e-19
4.10434e-13
3.67183e-07
-2.59124e-28
-9.26464e-24
1.53972e-19
4.10346e-13
3.67188e-07
-2.6123e-28
-9.33791e-24
1.50075e-19
4.09505e-13
3.67062e-07
-2.61315e-28
-9.34123e-24
1.49678e-19
4.09331e-13
3.66983e-07
-2.61527e-28
-9.35054e-24
1.48096e-19
4.08592e-13
3.66663e-07
-2.61542e-28
-9.35131e-24
1.47915e-19
4.085e-13
3.66619e-07
-2.6158e-28
-9.35358e-24
1.47284e-19
4.0818e-13
3.66475e-07
-2.61583e-28
-9.35381e-24
1.47216e-19
4.08144e-13
3.66458e-07
-2.61591e-28
-9.35432e-24
1.47048e-19
4.08057e-13
3.66418e-07
-2.61591e-28
-9.35432e-24
1.47048e-19
4.08057e-13
3.66418e-07
-2.61583e-28
-9.35381e-24
1.47216e-19
4.08144e-13
3.66458e-07
-2.6158e-28
-9.35358e-24
1.47284e-19
4.0818e-13
3.66475e-07
-2.61542e-28
-9.35131e-24
1.47915e-19
4.085e-13
3.66619e-07
-2.61527e-28
-9.35054e-24
1.48096e-19
4.08592e-13
3.66663e-07
-2.61315e-28
-9.34123e-24
1.49678e-19
4.09331e-13
3.66983e-07
-2.6123e-28
-9.33791e-24
1.50075e-19
4.09505e-13
3.67062e-07
-2.59124e-28
-9.26464e-24
1.53972e-19
4.10346e-13
3.67188e-07
-2.58498e-28
-9.24351e-24
1.54771e-19
4.10434e-13
3.67183e-07
-2.37966e-28
-8.57953e-24
1.63996e-19
4.0245e-13
3.60248e-07
-2.37275e-28
-7.99816e-24
6.36926e-19
7.32703e-13
5.63725e-07
-2.57809e-28
-8.66184e-24
6.28913e-19
7.41857e-13
5.70406e-07
-2.58436e-28
-8.68355e-24
6.2779e-19
7.41644e-13
5.70361e-07
-2.60548e-28
-8.7609e-24
6.21531e-19
7.39872e-13
5.6991e-07
-2.60634e-28
-8.76473e-24
6.2083e-19
7.39569e-13
5.6979e-07
-2.6085e-28
-8.77626e-24
6.17915e-19
7.38273e-13
5.69298e-07
-2.60865e-28
-8.77729e-24
6.1758e-19
7.38116e-13
5.69234e-07
-2.60904e-28
-8.78049e-24
6.16387e-19
7.37558e-13
5.69017e-07
-2.60908e-28
-8.78081e-24
6.16259e-19
7.37497e-13
5.68992e-07
-2.60915e-28
-8.78158e-24
6.15939e-19
7.37346e-13
5.68933e-07
-2.60915e-28
-8.78158e-24
6.15939e-19
7.37346e-13
5.68933e-07
-2.60908e-28
-8.78081e-24
6.16259e-19
7.37497e-13
5.68992e-07
-2.60904e-28
-8.78049e-24
6.16387e-19
7.37558e-13
5.69017e-07
-2.60865e-28
-8.77729e-24
6.1758e-19
7.38116e-13
5.69234e-07
-2.6085e-28
-8.77626e-24
6.17915e-19
7.38273e-13
5.69298e-07
-2.60634e-28
-8.76473e-24
6.2083e-19
7.39569e-13
5.6979e-07
-2.60548e-28
-8.7609e-24
6.21531e-19
7.39872e-13
5.6991e-07
-2.58436e-28
-8.68355e-24
6.2779e-19
7.41644e-13
5.70361e-07
-2.57809e-28
-8.66184e-24
6.28913e-19
7.41857e-13
5.70406e-07
-2.37275e-28
-7.99816e-24
6.36925e-19
7.32703e-13
5.63725e-07
-2.35893e-28
-6.93496e-24
1.41265e-18
1.20599e-12
8.06916e-07
-2.5644e-28
-7.60448e-24
1.40215e-18
1.21418e-12
8.12015e-07
-2.57069e-28
-7.62729e-24
1.40044e-18
1.21375e-12
8.1189e-07
-2.59194e-28
-7.71243e-24
1.39007e-18
1.21046e-12
8.10922e-07
-2.59282e-28
-7.71716e-24
1.38887e-18
1.20997e-12
8.10751e-07
-2.59504e-28
-7.73272e-24
1.38379e-18
1.20787e-12
8.10031e-07
-2.5952e-28
-7.7342e-24
1.38321e-18
1.20762e-12
8.09941e-07
-2.59563e-28
-7.73908e-24
1.3811e-18
1.20673e-12
8.09629e-07
-2.59566e-28
-7.73958e-24
1.38088e-18
1.20663e-12
8.09594e-07
-2.59574e-28
-7.7408e-24
1.38031e-18
1.20638e-12
8.09509e-07
-2.59574e-28
-7.7408e-24
1.38031e-18
1.20638e-12
8.09509e-07
-2.59566e-28
-7.73958e-24
1.38088e-18
1.20663e-12
8.09594e-07
-2.59563e-28
-7.73908e-24
1.3811e-18
1.20673e-12
8.09629e-07
-2.5952e-28
-7.7342e-24
1.38321e-18
1.20762e-12
8.09941e-07
-2.59504e-28
-7.73272e-24
1.38379e-18
1.20787e-12
8.10031e-07
-2.59282e-28
-7.71716e-24
1.38887e-18
1.20997e-12
8.10751e-07
-2.59194e-28
-7.71243e-24
1.39007e-18
1.21046e-12
8.10922e-07
-2.57069e-28
-7.62729e-24
1.40044e-18
1.21375e-12
8.1189e-07
-2.5644e-28
-7.60448e-24
1.40215e-18
1.21418e-12
8.12015e-07
-2.35893e-28
-6.93496e-24
1.41265e-18
1.20599e-12
8.06916e-07
-2.33385e-28
-5.20287e-24
2.48964e-18
1.67738e-12
8.04319e-07
-2.53966e-28
-5.88848e-24
2.47297e-18
1.68464e-12
8.09484e-07
-2.54599e-28
-5.91315e-24
2.47044e-18
1.684e-12
8.09363e-07
-2.56749e-28
-6.01125e-24
2.45421e-18
1.67921e-12
8.08418e-07
-2.56839e-28
-6.01744e-24
2.45235e-18
1.67855e-12
8.08249e-07
-2.57073e-28
-6.03952e-24
2.44427e-18
1.67565e-12
8.07538e-07
-2.57091e-28
-6.04173e-24
2.44335e-18
1.67531e-12
8.07451e-07
-2.57138e-28
-6.04933e-24
2.43999e-18
1.67407e-12
8.07142e-07
-2.57142e-28
-6.05011e-24
2.43964e-18
1.67394e-12
8.07108e-07
-2.57152e-28
-6.05206e-24
2.43873e-18
1.67361e-12
8.07024e-07
-2.57152e-28
-6.05206e-24
2.43873e-18
1.67361e-12
8.07024e-07
-2.57142e-28
-6.05011e-24
2.43964e-18
1.67394e-12
8.07108e-07
-2.57138e-28
-6.04933e-24
2.43999e-18
1.67407e-12
8.07142e-07
-2.57091e-28
-6.04173e-24
2.44335e-18
1.67531e-12
8.07451e-07
-2.57073e-28
-6.03952e-24
2.44427e-18
1.67565e-12
8.07538e-07
-2.56839e-28
-6.01744e-24
2.45235e-18
1.67855e-12
8.08249e-07
-2.56749e-28
-6.01125e-24
2.45421e-18
1.67921e-12
8.08418e-07
-2.54599e-28
-5.91315e-24
2.47044e-18
1.684e-12
8.09363e-07
-2.53966e-28
-5.88848e-24
2.47297e-18
1.68464e-12
8.09484e-07
-2.33385e-28
-5.20287e-24
2.48964e-18
1.67738e-12
8.04319e-07
-2.29191e-28
-2.61595e-24
3.86634e-18
2.14686e-12
8.01786e-07
-2.49844e-28
-3.33204e-24
3.83983e-18
2.15321e-12
8.07015e-07
-2.50484e-28
-3.35954e-24
3.83623e-18
2.15237e-12
8.06898e-07
-2.52675e-28
-3.47728e-24
3.81245e-18
2.14611e-12
8.05974e-07
-2.5277e-28
-3.48563e-24
3.80973e-18
2.14527e-12
8.05808e-07
-2.53025e-28
-3.51739e-24
3.79783e-18
2.14158e-12
8.05107e-07
-2.53044e-28
-3.52067e-24
3.79649e-18
2.14115e-12
8.05021e-07
-2.531e-28
-3.5323e-24
3.79154e-18
2.13958e-12
8.04717e-07
-2.53105e-28
-3.53349e-24
3.79102e-18
2.13942e-12
8.04683e-07
-2.53117e-28
-3.53654e-24
3.78968e-18
2.13899e-12
8.046e-07
-2.53117e-28
-3.53654e-24
3.78968e-18
2.13899e-12
8.046e-07
-2.53105e-28
-3.53349e-24
3.79102e-18
2.13942e-12
8.04683e-07
-2.531e-28
-3.5323e-24
3.79154e-18
2.13958e-12
8.04717e-07
-2.53044e-28
-3.52067e-24
3.79649e-18
2.14115e-12
8.05021e-07
-2.53025e-28
-3.51739e-24
3.79783e-18
2.14158e-12
8.05107e-07
-2.5277e-28
-3.48563e-24
3.80973e-18
2.14527e-12
8.05808e-07
-2.52675e-28
-3.47728e-24
3.81245e-18
2.14611e-12
8.05974e-07
-2.50484e-28
-3.35954e-24
3.83623e-18
2.15237e-12
8.06898e-07
-2.49844e-28
-3.33204e-24
3.83983e-18
2.15321e-12
8.07015e-07
-2.29191e-28
-2.61595e-24
3.86634e-18
2.14686e-12
8.01786e-07
-2.22634e-28
1.01052e-24
5.54109e-18
2.61435e-12
7.9931e-07
-2.43415e-28
2.45418e-25
5.50107e-18
2.61984e-12
8.04602e-07
-2.44065e-28
2.13932e-25
5.49616e-18
2.6188e-12
8.04489e-07
-2.46322e-28
6.84246e-26
5.46315e-18
2.61109e-12
8.03586e-07
-2.46424e-28
5.70806e-26
5.45941e-18
2.61007e-12
8.03422e-07
-2.4671e-28
1.17991e-26
5.44289e-18
2.6056e-12
8.0273e-07
-2.46732e-28
7.03652e-27
5.44103e-18
2.60508e-12
8.02645e-07
-2.46801e-28
-1.02178e-26
5.43415e-18
2.60319e-12
8.02345e-07
-2.46808e-28
-1.19814e-26
5.43343e-18
2.60299e-12
8.02312e-07
-2.46823e-28
-1.65478e-26
5.43157e-18
2.60247e-12
8.0223e-07
-2.46823e-28
-1.65478e-26
5.43157e-18
2.60247e-12
8.0223e-07
-2.46808e-28
-1.19813e-26
5.43343e-18
2.60299e-12
8.02312e-07
-2.46801e-28
-1.02177e-26
5.43415e-18
2.60319e-12
8.02345e-07
-2.46732e-28
7.03673e-27
5.44103e-18
2.60508e-12
8.02645e-07
-2.4671e-28
1.17995e-26
5.44289e-18
2.6056e-12
8.0273e-07
-2.46424e-28
5.70811e-26
5.45941e-18
2.61007e-12
8.03422e-07
-2.46322e-28
6.84253e-26
5.46315e-18
2.61109e-12
8.03586e-07
-2.44065e-28
2.13933e-25
5.49616e-18
2.6188e-12
8.04489e-07
-2.43415e-28
2.4542e-25
5.50107e-18
2.61984e-12
8.04602e-07
-2.22634e-28
1.01051e-24
5.54109e-18
2.61435e-12
7.9931e-07
-2.12912e-28
5.86001e-24
7.51212e-18
3.07979e-12
7.96887e-07
-2.33901e-28
5.02321e-24
7.45496e-18
3.08444e-12
8.02239e-07
-2.34567e-28
4.98637e-24
7.4485e-18
3.0832e-12
8.0213e-07
-2.36922e-28
4.80355e-24
7.40462e-18
3.07406e-12
8.01247e-07
-2.37033e-28
4.78824e-24
7.39968e-18
3.07287e-12
8.01086e-07
-2.37366e-28
4.72494e-24
7.37775e-18
3.06764e-12
8.00403e-07
-2.37393e-28
4.71821e-24
7.3753e-18
3.06703e-12
8.00319e-07
-2.37481e-28
4.69347e-24
7.36615e-18
3.06481e-12
8.00023e-07
-2.3749e-28
4.69095e-24
7.3652e-18
3.06458e-12
7.9999e-07
-2.3751e-28
4.68436e-24
7.36273e-18
3.06398e-12
7.9991e-07
-2.3751e-28
4.68436e-24
7.36273e-18
3.06398e-12
7.9991e-07
-2.3749e-28
4.69095e-24
7.3652e-18
3.06458e-12
7.9999e-07
-2.37481e-28
4.69347e-24
7.36615e-18
3.06481e-12
8.00023e-07
-2.37393e-28
4.71821e-24
7.3753e-18
3.06703e-12
8.00319e-07
-2.37365e-28
4.72494e-24
7.37775e-18
3.06764e-12
8.00403e-07
-2.37033e-28
4.78824e-24
7.39968e-18
3.07287e-12
8.01086e-07
-2.36921e-28
4.80355e-24
7.40462e-18
3.07406e-12
8.01247e-07
-2.34567e-28
4.98637e-24
7.4485e-18
3.0832e-12
8.0213e-07
-2.33901e-28
5.02322e-24
7.45496e-18
3.08444e-12
8.02239e-07
-2.12912e-28
5.86001e-24
7.51212e-18
3.07979e-12
7.96887e-07
-1.99105e-28
1.21147e-23
9.77762e-18
3.54309e-12
7.94513e-07
-2.2041e-28
1.11793e-23
9.69967e-18
3.54694e-12
7.99924e-07
-2.21097e-28
1.11356e-23
9.69145e-18
3.54551e-12
7.99819e-07
-2.23591e-28
1.09045e-23
9.63508e-18
3.53497e-12
7.98956e-07
-2.23717e-28
1.08841e-23
9.62877e-18
3.53361e-12
7.98797e-07
-2.24115e-28
1.07977e-23
9.60064e-18
3.52761e-12
7.98123e-07
-2.2415e-28
1.07884e-23
9.59751e-18
3.52692e-12
7.98039e-07
-2.24265e-28
1.07541e-23
9.58578e-18
3.52438e-12
7.97747e-07
-2.24276e-28
1.07506e-23
9.58457e-18
3.52412e-12
7.97715e-07
-2.24304e-28
1.07414e-23
9.5814e-18
3.52343e-12
7.97635e-07
-2.24304e-28
1.07414e-23
9.5814e-18
3.52343e-12
7.97635e-07
-2.24276e-28
1.07506e-23
9.58457e-18
3.52412e-12
7.97715e-07
-2.24265e-28
1.07541e-23
9.58578e-18
3.52438e-12
7.97747e-07
-2.2415e-28
1.07884e-23
9.59751e-18
3.52692e-12
7.98039e-07
-2.24115e-28
1.07977e-23
9.60064e-18
3.52761e-12
7.98123e-07
-2.23717e-28
1.08841e-23
9.62877e-18
3.53361e-12
7.98797e-07
-2.23591e-28
1.09045e-23
9.63508e-18
3.53497e-12
7.98956e-07
-2.21097e-28
1.11356e-23
9.69145e-18
3.54551e-12
7.99819e-07
-2.2041e-28
1.11793e-23
9.69967e-18
3.54694e-12
7.99924e-07
-1.99105e-28
1.21147e-23
9.77762e-18
3.54309e-12
7.94513e-07
-1.80171e-28
1.99555e-23
1.23357e-17
4.00417e-12
7.92184e-07
-2.01933e-28
1.88904e-23
1.22333e-17
4.00725e-12
7.97653e-07
-2.02648e-28
1.8838e-23
1.22231e-17
4.00564e-12
7.97551e-07
-2.05334e-28
1.85464e-23
1.21527e-17
3.99372e-12
7.96707e-07
-2.0548e-28
1.85196e-23
1.21448e-17
3.9922e-12
7.9655e-07
-2.05967e-28
1.84043e-23
1.21097e-17
3.98545e-12
7.95885e-07
-2.06012e-28
1.83919e-23
1.21058e-17
3.98467e-12
7.95803e-07
-2.06164e-28
1.83455e-23
1.20912e-17
3.98182e-12
7.95514e-07
-2.06179e-28
1.83409e-23
1.20897e-17
3.98152e-12
7.95482e-07
-2.06217e-28
1.83284e-23
1.20857e-17
3.98075e-12
7.95404e-07
-2.06217e-28
1.83284e-23
1.20857e-17
3.98075e-12
7.95404e-07
-2.06179e-28
1.83409e-23
1.20897e-17
3.98152e-12
7.95482e-07
-2.06164e-28
1.83455e-23
1.20912e-17
3.98182e-12
7.95514e-07
-2.06012e-28
1.83919e-23
1.21058e-17
3.98467e-12
7.95803e-07
-2.05967e-28
1.84043e-23
1.21097e-17
3.98545e-12
7.95885e-07
-2.0548e-28
1.85196e-23
1.21448e-17
3.9922e-12
7.9655e-07
-2.05334e-28
1.85464e-23
1.21527e-17
3.99372e-12
7.96707e-07
-2.02648e-28
1.8838e-23
1.22231e-17
4.00564e-12
7.97551e-07
-2.01933e-28
1.88904e-23
1.22333e-17
4.00725e-12
7.97653e-07
-1.80171e-28
1.99555e-23
1.23357e-17
4.00417e-12
7.92184e-07
-1.54951e-28
2.95617e-23
1.51843e-17
4.46297e-12
7.89897e-07
-1.77344e-28
2.83316e-23
1.50539e-17
4.46531e-12
7.95421e-07
-1.78098e-28
2.82686e-23
1.50415e-17
4.46352e-12
7.95323e-07
-1.8104e-28
2.79028e-23
1.49554e-17
4.45024e-12
7.94498e-07
-1.81211e-28
2.78684e-23
1.49459e-17
4.44856e-12
7.94343e-07
-1.81818e-28
2.77177e-23
1.49031e-17
4.44107e-12
7.93686e-07
-1.81875e-28
2.77015e-23
1.48983e-17
4.44021e-12
7.93605e-07
-1.82076e-28
2.76405e-23
1.48805e-17
4.43705e-12
7.9332e-07
-1.82096e-28
2.76344e-23
1.48787e-17
4.43672e-12
7.93288e-07
-1.82147e-28
2.7618e-23
1.48738e-17
4.43586e-12
7.93211e-07
-1.82147e-28
2.7618e-23
1.48738e-17
4.43586e-12
7.93211e-07
-1.82096e-28
2.76344e-23
1.48787e-17
4.43672e-12
7.93288e-07
-1.82076e-28
2.76405e-23
1.48805e-17
4.43705e-12
7.9332e-07
-1.81875e-28
2.77015e-23
1.48983e-17
4.44021e-12
7.93605e-07
-1.81818e-28
2.77177e-23
1.49031e-17
4.44107e-12
7.93686e-07
-1.81211e-28
2.78684e-23
1.49459e-17
4.44856e-12
7.94343e-07
-1.81039e-28
2.79028e-23
1.49554e-17
4.45024e-12
7.94498e-07
-1.78097e-28
2.82686e-23
1.50415e-17
4.46352e-12
7.95323e-07
-1.77344e-28
2.83316e-23
1.50539e-17
4.46531e-12
7.95421e-07
-1.54951e-28
2.95617e-23
1.51843e-17
4.46297e-12
7.89897e-07
-1.22164e-28
4.11114e-23
1.83214e-17
4.91939e-12
7.87647e-07
-1.45406e-28
3.96766e-23
1.81593e-17
4.92102e-12
7.93225e-07
-1.46209e-28
3.96009e-23
1.81445e-17
4.91906e-12
7.93131e-07
-1.49483e-28
3.91461e-23
1.80414e-17
4.90445e-12
7.92324e-07
-1.49688e-28
3.91025e-23
1.803e-17
4.90261e-12
7.92171e-07
-1.50449e-28
3.89094e-23
1.79787e-17
4.89439e-12
7.91522e-07
-1.50523e-28
3.88887e-23
1.7973e-17
4.89346e-12
7.91442e-07
-1.50788e-28
3.88102e-23
1.79517e-17
4.88998e-12
7.91161e-07
-1.50814e-28
3.88023e-23
1.79495e-17
4.88962e-12
7.9113e-07
-1.50882e-28
3.87812e-23
1.79437e-17
4.88868e-12
7.91053e-07
-1.50882e-28
3.87812e-23
1.79437e-17
4.88868e-12
7.91053e-07
-1.50814e-28
3.88023e-23
1.79495e-17
4.88962e-12
7.9113e-07
-1.50788e-28
3.88102e-23
1.79517e-17
4.88998e-12
7.91161e-07
-1.50523e-28
3.88887e-23
1.7973e-17
4.89346e-12
7.91442e-07
-1.50449e-28
3.89094e-23
1.79787e-17
4.89439e-12
7.91522e-07
-1.49688e-28
3.91025e-23
1.803e-17
4.90261e-12
7.92171e-07
-1.49483e-28
3.91461e-23
1.80414e-17
4.90445e-12
7.92324e-07
-1.46208e-28
3.96009e-23
1.81445e-17
4.91906e-12
7.93131e-07
-1.45406e-28
3.96766e-23
1.81593e-17
4.92102e-12
7.93225e-07
-1.22164e-28
4.11114e-23
1.83214e-17
4.91939e-12
7.87647e-07
-8.04119e-29
5.47811e-23
2.17449e-17
5.37334e-12
7.85426e-07
-1.04765e-28
5.30977e-23
2.15475e-17
5.3743e-12
7.91058e-07
-1.0563e-28
5.3007e-23
2.15301e-17
5.37217e-12
7.90966e-07
-1.09328e-28
5.2447e-23
2.14083e-17
5.35627e-12
7.90178e-07
-1.09575e-28
5.23926e-23
2.1395e-17
5.35426e-12
7.90027e-07
-1.10532e-28
5.21495e-23
2.13345e-17
5.34533e-12
7.89386e-07
-1.10626e-28
5.21235e-23
2.13278e-17
5.34432e-12
7.89307e-07
-1.10972e-28
5.20243e-23
2.13026e-17
5.34054e-12
7.89029e-07
-1.11006e-28
5.20144e-23
2.13001e-17
5.34015e-12
7.88998e-07
-1.11096e-28
5.19877e-23
2.12933e-17
5.33913e-12
7.88923e-07
-1.11096e-28
5.19877e-23
2.12933e-17
5.33913e-12
7.88923e-07
-1.11006e-28
5.20144e-23
2.13001e-17
5.34015e-12
7.88998e-07
-1.10972e-28
5.20243e-23
2.13026e-17
5.34054e-12
7.89029e-07
-1.10626e-28
5.21235e-23
2.13278e-17
5.34432e-12
7.89307e-07
-1.10532e-28
5.21495e-23
2.13345e-17
5.34533e-12
7.89386e-07
-1.09575e-28
5.23926e-23
2.1395e-17
5.35426e-12
7.90027e-07
-1.09328e-28
5.2447e-23
2.14083e-17
5.35627e-12
7.90178e-07
-1.0563e-28
5.3007e-23
2.15301e-17
5.37217e-12
7.90966e-07
-1.04765e-28
5.30977e-23
2.15475e-17
5.3743e-12
7.91058e-07
-8.04119e-29
5.47811e-23
2.17449e-17
5.37334e-12
7.85426e-07
-2.81778e-29
7.07457e-23
2.54525e-17
5.82472e-12
7.83203e-07
-5.39545e-29
6.87654e-23
2.52162e-17
5.82505e-12
7.88889e-07
-5.48962e-29
6.86573e-23
2.5196e-17
5.82275e-12
7.88801e-07
-5.91232e-29
6.79747e-23
2.50542e-17
5.80558e-12
7.88031e-07
-5.94232e-29
6.79078e-23
2.50387e-17
5.80342e-12
7.87881e-07
-6.06249e-29
6.76066e-23
2.49683e-17
5.79378e-12
7.87248e-07
-6.07447e-29
6.75744e-23
2.49606e-17
5.79269e-12
7.8717e-07
-6.11915e-29
6.74512e-23
2.49313e-17
5.78862e-12
7.86895e-07
-6.12351e-29
6.74389e-23
2.49283e-17
5.7882e-12
7.86865e-07
-6.13526e-29
6.74057e-23
2.49204e-17
5.7871e-12
7.86791e-07
-6.13526e-29
6.74057e-23
2.49204e-17
5.7871e-12
7.86791e-07
-6.12351e-29
6.74389e-23
2.49283e-17
5.7882e-12
7.86865e-07
-6.11915e-29
6.74512e-23
2.49313e-17
5.78862e-12
7.86895e-07
-6.07447e-29
6.75744e-23
2.49606e-17
5.79269e-12
7.8717e-07
-6.06248e-29
6.76066e-23
2.49683e-17
5.79378e-12
7.87248e-07
-5.94231e-29
6.79078e-23
2.50387e-17
5.80342e-12
7.87881e-07
-5.91231e-29
6.79747e-23
2.50542e-17
5.80558e-12
7.88031e-07
-5.48961e-29
6.86573e-23
2.5196e-17
5.82275e-12
7.88801e-07
-5.39544e-29
6.87654e-23
2.52162e-17
5.82505e-12
7.88889e-07
-2.81778e-29
7.07457e-23
2.54525e-17
5.82472e-12
7.83203e-07
-2.36492e-06
-1.14563e-06
-5.04558e-08
-4.1895e-10
-6.22683e-13
5.09824e-16
7.09099e-16
7.106e-16
7.10928e-16
7.10979e-16
7.11029e-16
7.11306e-16
7.12784e-16
7.14653e-16
7.30447e-16
7.4437e-16
8.92666e-16
9.74848e-16
3.07745e-15
3.60295e-15
-1.40349e-06
-1.09978e-06
-5.2382e-08
-4.56075e-10
-7.0771e-13
4.75164e-16
7.09048e-16
7.10585e-16
7.10917e-16
7.10968e-16
7.10983e-16
7.11209e-16
7.12717e-16
7.14616e-16
7.30665e-16
7.44747e-16
8.94887e-16
9.77598e-16
3.10359e-15
3.6348e-15
-1.3908e-06
-1.09931e-06
-5.23894e-08
-4.5629e-10
-7.08302e-13
4.74849e-16
7.09047e-16
7.10585e-16
7.10918e-16
7.10969e-16
7.10984e-16
7.11215e-16
7.12724e-16
7.14624e-16
7.30679e-16
7.44763e-16
8.94932e-16
9.77645e-16
3.10384e-15
3.63506e-15
-1.34505e-06
-1.09671e-06
-5.22877e-08
-4.55321e-10
-7.06799e-13
4.75075e-16
7.09046e-16
7.10586e-16
7.1092e-16
7.10971e-16
7.10991e-16
7.11241e-16
7.12754e-16
7.14656e-16
7.30727e-16
7.4482e-16
8.95073e-16
9.77798e-16
3.10462e-15
3.63575e-15
-1.34721e-06
-1.09684e-06
-5.22795e-08
-4.55187e-10
-7.06502e-13
4.75175e-16
7.09046e-16
7.10586e-16
7.1092e-16
7.10971e-16
7.10991e-16
7.11242e-16
7.12755e-16
7.14657e-16
7.30729e-16
7.44822e-16
8.95077e-16
9.77802e-16
3.10464e-15
3.63576e-15
-1.35482e-06
-1.09703e-06
-5.2229e-08
-4.54522e-10
-7.05159e-13
4.75619e-16
7.09046e-16
7.10586e-16
7.1092e-16
7.10971e-16
7.10992e-16
7.11244e-16
7.12756e-16
7.14659e-16
7.30732e-16
7.44825e-16
8.95084e-16
9.77809e-16
3.10466e-15
3.63578e-15
-1.35644e-06
-1.09712e-06
-5.22256e-08
-4.54462e-10
-7.05026e-13
4.75666e-16
7.09046e-16
7.10586e-16
7.1092e-16
7.10971e-16
7.10992e-16
7.11244e-16
7.12756e-16
7.14659e-16
7.30732e-16
7.44825e-16
8.95084e-16
9.77809e-16
3.10466e-15
3.63578e-15
-1.36043e-06
-1.09725e-06
-5.22081e-08
-4.54233e-10
-7.0457e-13
4.75816e-16
7.09046e-16
7.10586e-16
7.1092e-16
7.10971e-16
7.10992e-16
7.11244e-16
7.12757e-16
7.14659e-16
7.30732e-16
7.44825e-16
8.95084e-16
9.77809e-16
3.10467e-15
3.63578e-15
-1.36106e-06
-1.09729e-06
-5.22071e-08
-4.54214e-10
-7.04529e-13
4.75831e-16
7.09046e-16
7.10586e-16
7.1092e-16
7.10971e-16
7.10992e-16
7.11244e-16
7.12757e-16
7.14659e-16
7.30732e-16
7.44825e-16
8.95085e-16
9.77809e-16
3.10467e-15
3.63578e-15
-1.36209e-06
-1.09732e-06
-5.2203e-08
-4.54161e-10
-7.04426e-13
4.75864e-16
7.09046e-16
7.10586e-16
7.1092e-16
7.10971e-16
7.10992e-16
7.11244e-16
7.12757e-16
7.14659e-16
7.30732e-16
7.44825e-16
8.95085e-16
9.77809e-16
3.10467e-15
3.63578e-15
-1.36209e-06
-1.09732e-06
-5.2203e-08
-4.54161e-10
-7.04426e-13
4.75864e-16
7.09046e-16
7.10586e-16
7.1092e-16
7.10971e-16
7.10992e-16
7.11244e-16
7.12757e-16
7.14659e-16
7.30732e-16
7.44825e-16
8.95085e-16
9.77809e-16
3.10467e-15
3.63578e-15
-1.36106e-06
-1.09729e-06
-5.22071e-08
-4.54214e-10
-7.04529e-13
4.75831e-16
7.09046e-16
7.10586e-16
7.1092e-16
7.10971e-16
7.10992e-16
7.11244e-16
7.12757e-16
7.14659e-16
7.30732e-16
7.44825e-16
8.95085e-16
9.77809e-16
3.10467e-15
3.63578e-15
-1.36043e-06
-1.09725e-06
-5.22081e-08
-4.54233e-10
-7.0457e-13
4.75816e-16
7.09046e-16
7.10586e-16
7.1092e-16
7.10971e-16
7.10992e-16
7.11244e-16
7.12757e-16
7.14659e-16
7.30732e-16
7.44825e-16
8.95084e-16
9.77809e-16
3.10467e-15
3.63578e-15
-1.35644e-06
-1.09712e-06
-5.22256e-08
-4.54462e-10
-7.05026e-13
4.75666e-16
7.09046e-16
7.10586e-16
7.1092e-16
7.10971e-16
7.10992e-16
7.11244e-16
7.12756e-16
7.14659e-16
7.30732e-16
7.44825e-16
8.95084e-16
9.77809e-16
3.10466e-15
3.63578e-15
-1.35482e-06
-1.09703e-06
-5.2229e-08
-4.54522e-10
-7.05159e-13
4.75619e-16
7.09046e-16
7.10586e-16
7.1092e-16
7.10971e-16
7.10992e-16
7.11244e-16
7.12756e-16
7.14659e-16
7.30732e-16
7.44825e-16
8.95084e-16
9.77809e-16
3.10466e-15
3.63578e-15
-1.34721e-06
-1.09684e-06
-5.22795e-08
-4.55187e-10
-7.06502e-13
4.75175e-16
7.09046e-16
7.10586e-16
7.1092e-16
7.10971e-16
7.10991e-16
7.11242e-16
7.12755e-16
7.14657e-16
7.30729e-16
7.44822e-16
8.95077e-16
9.77802e-16
3.10464e-15
3.63576e-15
-1.34505e-06
-1.09671e-06
-5.22877e-08
-4.55321e-10
-7.06799e-13
4.75075e-16
7.09046e-16
7.10586e-16
7.1092e-16
7.10971e-16
7.10991e-16
7.11241e-16
7.12754e-16
7.14656e-16
7.30727e-16
7.4482e-16
8.95073e-16
9.77798e-16
3.10462e-15
3.63575e-15
-1.3908e-06
-1.09931e-06
-5.23894e-08
-4.5629e-10
-7.08302e-13
4.74849e-16
7.09047e-16
7.10585e-16
7.10918e-16
7.10969e-16
7.10984e-16
7.11215e-16
7.12724e-16
7.14624e-16
7.30679e-16
7.44763e-16
8.94932e-16
9.77645e-16
3.10384e-15
3.63506e-15
-1.40349e-06
-1.09978e-06
-5.2382e-08
-4.56075e-10
-7.0771e-13
4.75164e-16
7.09048e-16
7.10585e-16
7.10917e-16
7.10968e-16
7.10983e-16
7.11209e-16
7.12717e-16
7.14616e-16
7.30665e-16
7.44747e-16
8.94887e-16
9.77598e-16
3.10359e-15
3.6348e-15
-2.36492e-06