/*--------------------------------*- C++ -*----------------------------------*\
  =========                 |
  \\      /  F ield         | OpenFOAM: The Open Source CFD Toolbox
   \\    /   O peration     | Website:  https://openfoam.org
    \\  /    A nd           | Version:  8
     \\/     M anipulation  |
\*---------------------------------------------------------------------------*/
FoamFile
{
    version     2.0;
    format      ascii;
    class       volScalarField;
    location    "2.2";
    object      p;
}
// * * * * * * * * * * * * * * * * * * * * * * * * * * * * * * * * * * * * * //

dimensions      [0 2 -2 0 0 0 0];

internalField   nonuniform List<scalar> 
180000
(
0.000929816
0.000867084
0.00090761
0.000771565
0.000844303
0.000915273
0.000852786
0.00089302
0.000758341
0.000829879
0.000914606
0.00085215
0.000892352
0.000757786
0.000829248
0.000910605
0.000848305
0.000888336
0.000754402
0.000825474
0.000910225
0.000847943
0.000887952
0.000754085
0.000825113
0.000908584
0.000846376
0.000886299
0.000752711
0.000823562
0.000908402
0.000846203
0.000886114
0.000752559
0.000823387
0.000907728
0.000845561
0.000885434
0.000751995
0.000822748
0.000907658
0.000845493
0.000885363
0.000751936
0.00082268
0.000907475
0.000845319
0.000885178
0.000751783
0.000822506
0.000907475
0.000845319
0.000885178
0.000751783
0.000822506
0.000907658
0.000845493
0.000885363
0.000751936
0.00082268
0.000907728
0.000845561
0.000885434
0.000751995
0.000822748
0.000908402
0.000846203
0.000886114
0.000752559
0.000823387
0.000908584
0.000846376
0.000886299
0.000752711
0.000823562
0.000910225
0.000847943
0.000887952
0.000754085
0.000825113
0.000910605
0.000848305
0.000888336
0.000754402
0.000825474
0.000914606
0.00085215
0.000892352
0.000757786
0.000829248
0.000915273
0.000852786
0.00089302
0.000758341
0.000829879
0.000929816
0.000867084
0.00090761
0.000771565
0.000844303
0.000746801
0.000719629
0.000738135
0.000669753
0.000709232
0.000740914
0.000712902
0.000731889
0.000662283
0.000702103
0.000740639
0.000712597
0.000731598
0.000661964
0.000701786
0.000738942
0.000710713
0.0007298
0.000659985
0.000699846
0.000738782
0.000710537
0.000729629
0.000659801
0.000699661
0.000738079
0.000709763
0.000728882
0.000658993
0.000698858
0.000738001
0.000709677
0.000728798
0.000658903
0.000698768
0.000737712
0.000709359
0.00072849
0.000658571
0.000698436
0.000737681
0.000709326
0.000728458
0.000658536
0.000698401
0.000737603
0.000709239
0.000728374
0.000658446
0.00069831
0.000737603
0.000709239
0.000728374
0.000658446
0.00069831
0.000737681
0.000709326
0.000728458
0.000658536
0.000698401
0.000737712
0.000709359
0.00072849
0.000658571
0.000698436
0.000738001
0.000709677
0.000728798
0.000658903
0.000698768
0.000738079
0.000709763
0.000728882
0.000658993
0.000698858
0.000738782
0.000710537
0.000729629
0.000659801
0.000699661
0.000738942
0.000710713
0.0007298
0.000659985
0.000699846
0.000740639
0.000712597
0.000731598
0.000661964
0.000701786
0.000740914
0.000712902
0.000731889
0.000662283
0.000702103
0.000746801
0.000719629
0.000738135
0.000669753
0.000709232
0.000537389
0.000515262
0.000530753
0.000476402
0.00051008
0.000532522
0.000510014
0.000525708
0.000470914
0.000504597
0.000532296
0.000509777
0.000525474
0.00047068
0.000504353
0.000530868
0.000508275
0.000523994
0.000469186
0.000502822
0.000530734
0.000508136
0.000523855
0.000469049
0.000502678
0.000530144
0.00050752
0.00052324
0.000468439
0.000502045
0.000530079
0.000507453
0.000523172
0.000468372
0.000501974
0.000529835
0.000507199
0.000522919
0.000468121
0.000501712
0.00052981
0.000507173
0.000522892
0.000468095
0.000501685
0.000529744
0.000507104
0.000522823
0.000468027
0.000501613
0.000529744
0.000507104
0.000522823
0.000468027
0.000501613
0.00052981
0.000507173
0.000522892
0.000468095
0.000501685
0.000529835
0.000507199
0.000522919
0.000468121
0.000501712
0.000530079
0.000507453
0.000523172
0.000468372
0.000501974
0.000530144
0.00050752
0.00052324
0.000468439
0.000502045
0.000530734
0.000508136
0.000523855
0.000469049
0.000502678
0.000530868
0.000508275
0.000523994
0.000469186
0.000502822
0.000532296
0.000509777
0.000525474
0.00047068
0.000504353
0.000532522
0.000510014
0.000525708
0.000470914
0.000504597
0.000537389
0.000515262
0.000530753
0.000476402
0.00051008
0.000505174
0.000478592
0.000497257
0.000434806
0.000475563
0.000499192
0.00047253
0.000491199
0.000428945
0.000469368
0.000498913
0.000472256
0.000490917
0.000428693
0.00046909
0.000497156
0.000470512
0.000489136
0.000427079
0.000467344
0.000496993
0.000470352
0.000488969
0.000426931
0.00046718
0.000496268
0.000469638
0.000488231
0.000426273
0.000466458
0.000496189
0.00046956
0.00048815
0.000426201
0.000466378
0.000495891
0.000469266
0.000487846
0.00042593
0.00046608
0.00049586
0.000469236
0.000487815
0.000425902
0.000466049
0.000495779
0.000469156
0.000487732
0.000425828
0.000465967
0.000495779
0.000469156
0.000487732
0.000425828
0.000465967
0.00049586
0.000469236
0.000487815
0.000425902
0.000466049
0.000495891
0.000469266
0.000487846
0.00042593
0.00046608
0.000496189
0.00046956
0.00048815
0.000426201
0.000466378
0.000496268
0.000469638
0.000488231
0.000426273
0.000466458
0.000496993
0.000470352
0.000488969
0.000426931
0.00046718
0.000497156
0.000470512
0.000489136
0.000427079
0.000467344
0.000498913
0.000472256
0.000490917
0.000428693
0.00046909
0.000499192
0.00047253
0.000491199
0.000428945
0.000469368
0.000505174
0.000478592
0.000497257
0.000434806
0.000475563
0.000528929
0.000500841
0.000520916
0.000454204
0.000500685
0.000522634
0.000494455
0.000514539
0.000448034
0.000494183
0.000522337
0.000494163
0.000514239
0.000447766
0.000493887
0.00052046
0.000492298
0.000512334
0.00044604
0.000492018
0.000520285
0.000492126
0.000512156
0.000445882
0.000491843
0.00051951
0.000491361
0.000511367
0.000445177
0.00049107
0.000519425
0.000491278
0.00051128
0.0004451
0.000490985
0.000519106
0.000490964
0.000510954
0.00044481
0.000490665
0.000519073
0.000490932
0.000510921
0.00044478
0.000490632
0.000518987
0.000490846
0.000510832
0.000444701
0.000490545
0.000518987
0.000490846
0.000510832
0.000444701
0.000490545
0.000519073
0.000490932
0.000510921
0.00044478
0.000490632
0.000519106
0.000490964
0.000510954
0.00044481
0.000490665
0.000519425
0.000491278
0.00051128
0.0004451
0.000490985
0.00051951
0.000491361
0.000511367
0.000445177
0.00049107
0.000520285
0.000492126
0.000512156
0.000445882
0.000491843
0.00052046
0.000492298
0.000512334
0.00044604
0.000492018
0.000522337
0.000494163
0.000514239
0.000447766
0.000493887
0.000522634
0.000494455
0.000514539
0.000448034
0.000494183
0.000528929
0.000500841
0.000520916
0.000454204
0.000500685
0.000541435
0.000514032
0.000534114
0.000467708
0.000517742
0.000535347
0.000507807
0.000527932
0.000461627
0.000511409
0.000535057
0.000507519
0.000527638
0.000461361
0.000511116
0.000533203
0.000505663
0.000525751
0.000459624
0.000509249
0.000533031
0.000505493
0.000525576
0.000459466
0.000509074
0.000532264
0.00050473
0.000524793
0.000458755
0.000508301
0.000532181
0.000504648
0.000524707
0.000458678
0.000508215
0.000531864
0.000504334
0.000524384
0.000458386
0.000507896
0.000531832
0.000504302
0.000524351
0.000458356
0.000507862
0.000531746
0.000504217
0.000524263
0.000458276
0.000507775
0.000531746
0.000504217
0.000524263
0.000458276
0.000507775
0.000531832
0.000504302
0.000524351
0.000458356
0.000507862
0.000531864
0.000504334
0.000524384
0.000458386
0.000507896
0.000532181
0.000504648
0.000524707
0.000458678
0.000508215
0.000532264
0.00050473
0.000524793
0.000458755
0.000508301
0.000533031
0.000505493
0.000525576
0.000459466
0.000509074
0.000533203
0.000505663
0.000525751
0.000459624
0.000509249
0.000535057
0.000507519
0.000527638
0.000461361
0.000511116
0.000535347
0.000507807
0.000527932
0.000461627
0.000511409
0.000541435
0.000514032
0.000534114
0.000467708
0.000517742
0.000541032
0.000514418
0.000534416
0.000469004
0.000522314
0.000535163
0.000508404
0.000528453
0.000463109
0.000516206
0.000534881
0.000508123
0.000528167
0.000462848
0.00051592
0.000533055
0.000506293
0.00052631
0.000461128
0.000514072
0.000532887
0.000506126
0.000526138
0.000460972
0.0005139
0.000532131
0.000505373
0.000525366
0.000460267
0.000513133
0.000532049
0.000505292
0.000525281
0.000460191
0.000513049
0.000531737
0.000504982
0.000524962
0.000459901
0.000512732
0.000531706
0.00050495
0.00052493
0.000459871
0.000512699
0.000531621
0.000504866
0.000524843
0.000459792
0.000512613
0.000531621
0.000504866
0.000524843
0.000459792
0.000512613
0.000531706
0.00050495
0.00052493
0.000459871
0.000512699
0.000531737
0.000504982
0.000524962
0.000459901
0.000512732
0.000532049
0.000505292
0.000525281
0.000460191
0.000513049
0.000532131
0.000505373
0.000525366
0.000460267
0.000513133
0.000532887
0.000506126
0.000526138
0.000460972
0.0005139
0.000533055
0.000506293
0.00052631
0.000461128
0.000514072
0.000534881
0.000508123
0.000528167
0.000462848
0.00051592
0.000535163
0.000508404
0.000528453
0.000463109
0.000516206
0.000541032
0.000514418
0.000534416
0.000469004
0.000522314
0.000538252
0.000512047
0.000532187
0.000467217
0.000523899
0.000532505
0.000506168
0.000526355
0.000461462
0.000517942
0.000532227
0.000505892
0.000526073
0.000461205
0.000517659
0.000530407
0.000504068
0.000524222
0.000459492
0.000515814
0.00053024
0.000503903
0.000524052
0.000459337
0.000515643
0.000529485
0.000503152
0.000523281
0.000458634
0.000514877
0.000529404
0.000503071
0.000523198
0.000458559
0.000514793
0.000529092
0.000502762
0.000522879
0.000458269
0.000514476
0.00052906
0.000502731
0.000522846
0.00045824
0.000514443
0.000528976
0.000502646
0.00052276
0.000458161
0.000514357
0.000528976
0.000502646
0.00052276
0.000458161
0.000514357
0.00052906
0.000502731
0.000522846
0.00045824
0.000514443
0.000529092
0.000502762
0.000522879
0.000458269
0.000514476
0.000529404
0.000503071
0.000523198
0.000458559
0.000514793
0.000529485
0.000503152
0.000523281
0.000458634
0.000514877
0.00053024
0.000503903
0.000524052
0.000459337
0.000515643
0.000530407
0.000504068
0.000524222
0.000459492
0.000515814
0.000532227
0.000505892
0.000526073
0.000461205
0.000517659
0.000532505
0.000506168
0.000526355
0.000461462
0.000517942
0.000538252
0.000512047
0.000532187
0.000467217
0.000523899
0.000536922
0.000510979
0.000531346
0.000466579
0.000526275
0.000531265
0.0005052
0.00052561
0.00046093
0.000520427
0.000530989
0.000504927
0.000525331
0.000460675
0.000520146
0.000529166
0.000503103
0.000523478
0.000458961
0.000518295
0.000529
0.000502938
0.000523308
0.000458808
0.000518125
0.000528242
0.000502185
0.000522536
0.000458103
0.000517355
0.000528161
0.000502105
0.000522452
0.000458028
0.000517271
0.000527848
0.000501795
0.000522133
0.000457737
0.000516953
0.000527816
0.000501763
0.0005221
0.000457708
0.00051692
0.000527731
0.000501679
0.000522013
0.000457628
0.000516833
0.000527731
0.000501679
0.000522013
0.000457628
0.000516833
0.000527816
0.000501763
0.0005221
0.000457708
0.00051692
0.000527848
0.000501795
0.000522133
0.000457737
0.000516953
0.000528161
0.000502105
0.000522452
0.000458028
0.000517271
0.000528242
0.000502185
0.000522536
0.000458103
0.000517355
0.000529
0.000502938
0.000523308
0.000458808
0.000518125
0.000529166
0.000503103
0.000523478
0.000458961
0.000518295
0.000530989
0.000504927
0.000525331
0.000460675
0.000520146
0.000531265
0.0005052
0.00052561
0.00046093
0.000520427
0.000536922
0.000510979
0.000531346
0.000466579
0.000526275
0.000536519
0.000510849
0.000531425
0.000466943
0.000528933
0.000530956
0.000505171
0.000525789
0.000461393
0.00052318
0.000530683
0.000504901
0.000525512
0.000461141
0.000522901
0.000528858
0.000503077
0.000523659
0.000459426
0.000521046
0.000528693
0.000502913
0.00052349
0.000459273
0.000520876
0.000527933
0.000502158
0.000522716
0.000458566
0.000520103
0.000527852
0.000502078
0.000522632
0.000458491
0.000520019
0.000527538
0.000501767
0.000522312
0.000458199
0.000519699
0.000527507
0.000501736
0.000522279
0.00045817
0.000519666
0.000527421
0.000501651
0.000522192
0.000458091
0.000519578
0.000527421
0.000501651
0.000522192
0.000458091
0.000519578
0.000527507
0.000501736
0.000522279
0.00045817
0.000519666
0.000527538
0.000501767
0.000522312
0.000458199
0.000519699
0.000527852
0.000502078
0.000522632
0.000458491
0.000520019
0.000527933
0.000502159
0.000522716
0.000458566
0.000520103
0.000528693
0.000502913
0.00052349
0.000459273
0.000520876
0.000528858
0.000503077
0.000523659
0.000459426
0.000521046
0.000530683
0.000504901
0.000525512
0.000461141
0.000522901
0.000530956
0.000505171
0.000525789
0.000461393
0.00052318
0.000536519
0.000510849
0.000531425
0.000466943
0.000528933
0.000536196
0.000510821
0.000531578
0.000467501
0.000530728
0.000530732
0.000505248
0.000526046
0.000462053
0.000525059
0.000530462
0.00050498
0.000525773
0.000461803
0.000524782
0.000528639
0.000503158
0.000523922
0.000460088
0.000522922
0.000528474
0.000502995
0.000523753
0.000459935
0.000522752
0.000527714
0.000502241
0.000522979
0.000459227
0.000521975
0.000527633
0.000502161
0.000522896
0.000459152
0.000521892
0.000527319
0.000501849
0.000522575
0.00045886
0.00052157
0.000527287
0.000501818
0.000522542
0.000458831
0.000521537
0.000527202
0.000501734
0.000522455
0.000458751
0.000521449
0.000527202
0.000501734
0.000522455
0.000458751
0.000521449
0.000527287
0.000501818
0.000522542
0.000458831
0.000521537
0.000527319
0.000501849
0.000522575
0.00045886
0.00052157
0.000527633
0.000502161
0.000522896
0.000459152
0.000521892
0.000527714
0.000502241
0.000522979
0.000459227
0.000521975
0.000528474
0.000502995
0.000523753
0.000459935
0.000522752
0.000528639
0.000503158
0.000523922
0.000460088
0.000522922
0.000530462
0.00050498
0.000525773
0.000461803
0.000524782
0.000530732
0.000505248
0.000526046
0.000462053
0.000525059
0.000536196
0.000510821
0.000531578
0.000467501
0.000530728
0.000535756
0.000510671
0.000531598
0.000467952
0.000529406
0.000530391
0.000505203
0.00052617
0.000462605
0.000523834
0.000530123
0.000504938
0.000525899
0.000462358
0.00052356
0.000528303
0.000503119
0.000524051
0.000460643
0.000521703
0.000528139
0.000502957
0.000523884
0.000460491
0.000521534
0.000527378
0.000502202
0.000523108
0.000459782
0.000520757
0.000527297
0.000502123
0.000523026
0.000459707
0.000520673
0.000526982
0.000501811
0.000522704
0.000459414
0.000520351
0.000526951
0.00050178
0.000522672
0.000459385
0.000520318
0.000526865
0.000501695
0.000522584
0.000459305
0.00052023
0.000526865
0.000501695
0.000522584
0.000459305
0.00052023
0.000526951
0.00050178
0.000522672
0.000459385
0.000520318
0.000526982
0.000501811
0.000522704
0.000459414
0.000520351
0.000527297
0.000502123
0.000523026
0.000459707
0.000520673
0.000527378
0.000502202
0.000523108
0.000459782
0.000520757
0.000528139
0.000502957
0.000523884
0.000460491
0.000521534
0.000528303
0.000503119
0.000524051
0.000460643
0.000521703
0.000530123
0.000504938
0.000525899
0.000462358
0.00052356
0.000530391
0.000505203
0.00052617
0.000462605
0.000523834
0.000535756
0.000510671
0.000531598
0.000467952
0.000529406
0.000535279
0.000510471
0.000531561
0.000468272
0.000527197
0.000530009
0.000505105
0.000526233
0.000463023
0.000521726
0.000529744
0.000504843
0.000525965
0.000462778
0.000521455
0.000527926
0.000503027
0.00052412
0.000461065
0.000519604
0.000527763
0.000502866
0.000523954
0.000460914
0.000519436
0.000527001
0.000502111
0.000523178
0.000460204
0.000518659
0.000526921
0.000502032
0.000523096
0.00046013
0.000518576
0.000526606
0.000501719
0.000522774
0.000459836
0.000518254
0.000526575
0.000501688
0.000522742
0.000459807
0.000518221
0.000526489
0.000501603
0.000522654
0.000459727
0.000518133
0.000526489
0.000501603
0.000522654
0.000459727
0.000518133
0.000526575
0.000501688
0.000522742
0.000459807
0.000518221
0.000526606
0.000501719
0.000522774
0.000459836
0.000518254
0.000526921
0.000502032
0.000523096
0.00046013
0.000518576
0.000527001
0.000502111
0.000523178
0.000460204
0.000518659
0.000527763
0.000502866
0.000523954
0.000460914
0.000519436
0.000527926
0.000503027
0.00052412
0.000461065
0.000519604
0.000529744
0.000504843
0.000525965
0.000462778
0.000521455
0.000530009
0.000505105
0.000526233
0.000463023
0.000521726
0.000535279
0.000510471
0.000531561
0.000468272
0.000527197
0.000534826
0.000510284
0.000531531
0.000468507
0.000525254
0.000529649
0.000505016
0.000526301
0.000463355
0.000519879
0.000529386
0.000504757
0.000526036
0.000463113
0.000519612
0.000527571
0.000502944
0.000524194
0.000461402
0.000517766
0.000527409
0.000502784
0.000524029
0.000461251
0.000517599
0.000526647
0.000502029
0.000523253
0.000460541
0.000516823
0.000526567
0.00050195
0.000523171
0.000460466
0.000516741
0.000526251
0.000501637
0.000522848
0.000460172
0.000516418
0.00052622
0.000501607
0.000522816
0.000460143
0.000516386
0.000526134
0.000501521
0.000522729
0.000460063
0.000516298
0.000526134
0.000501521
0.000522729
0.000460063
0.000516298
0.00052622
0.000501607
0.000522816
0.000460143
0.000516386
0.000526251
0.000501637
0.000522848
0.000460172
0.000516418
0.000526567
0.00050195
0.000523171
0.000460466
0.000516741
0.000526647
0.000502029
0.000523253
0.000460541
0.000516823
0.000527409
0.000502784
0.000524029
0.000461251
0.000517599
0.000527571
0.000502944
0.000524194
0.000461402
0.000517766
0.000529386
0.000504757
0.000526036
0.000463113
0.000519612
0.000529649
0.000505016
0.000526301
0.000463355
0.000519879
0.000534826
0.000510284
0.000531531
0.000468507
0.000525254
0.000534403
0.000510119
0.000531517
0.00046868
0.000523576
0.000529318
0.000504947
0.000526383
0.000463623
0.000518296
0.000529058
0.000504691
0.000526121
0.000463383
0.000518032
0.000527246
0.000502882
0.000524283
0.000461675
0.000516192
0.000527084
0.000502723
0.000524118
0.000461525
0.000516026
0.000526322
0.000501967
0.000523342
0.000460814
0.00051525
0.000526242
0.000501889
0.00052326
0.00046074
0.000515168
0.000525926
0.000501575
0.000522938
0.000460445
0.000514845
0.000525895
0.000501545
0.000522906
0.000460416
0.000514813
0.000525809
0.00050146
0.000522818
0.000460336
0.000514725
0.000525809
0.00050146
0.000522818
0.000460336
0.000514725
0.000525895
0.000501545
0.000522906
0.000460416
0.000514813
0.000525926
0.000501575
0.000522938
0.000460445
0.000514845
0.000526242
0.000501889
0.00052326
0.00046074
0.000515168
0.000526322
0.000501967
0.000523342
0.000460814
0.00051525
0.000527084
0.000502723
0.000524118
0.000461525
0.000516026
0.000527246
0.000502882
0.000524283
0.000461675
0.000516192
0.000529058
0.000504691
0.000526121
0.000463383
0.000518032
0.000529318
0.000504947
0.000526383
0.000463623
0.000518296
0.000534403
0.000510119
0.000531517
0.00046868
0.000523576
0.000534003
0.000509968
0.000531514
0.00046879
0.000521963
0.000529007
0.00050489
0.000526473
0.000463828
0.000516775
0.000528749
0.000504636
0.000526213
0.00046359
0.000516513
0.000526941
0.000502831
0.000524379
0.000461885
0.000514679
0.00052678
0.000502673
0.000524216
0.000461736
0.000514515
0.000526017
0.000501917
0.000523439
0.000461024
0.000513739
0.000525938
0.000501839
0.000523358
0.000460951
0.000513657
0.000525621
0.000501526
0.000523035
0.000460656
0.000513335
0.000525591
0.000501495
0.000523003
0.000460627
0.000513303
0.000525504
0.00050141
0.000522915
0.000460546
0.000513214
0.000525504
0.00050141
0.000522915
0.000460546
0.000513214
0.000525591
0.000501495
0.000523003
0.000460627
0.000513303
0.000525621
0.000501526
0.000523035
0.000460656
0.000513335
0.000525938
0.000501839
0.000523358
0.000460951
0.000513657
0.000526017
0.000501917
0.000523439
0.000461024
0.000513739
0.00052678
0.000502673
0.000524216
0.000461736
0.000514515
0.000526941
0.000502831
0.000524379
0.000461885
0.000514679
0.000528749
0.000504636
0.000526213
0.00046359
0.000516513
0.000529007
0.00050489
0.000526473
0.000463828
0.000516775
0.000534003
0.000509968
0.000531514
0.00046879
0.000521963
0.000533621
0.000509826
0.000531516
0.000468836
0.000520344
0.000528711
0.00050484
0.000526567
0.000463966
0.000515245
0.000528456
0.000504589
0.00052631
0.000463731
0.000514986
0.000526652
0.000502788
0.000524481
0.000462029
0.000513159
0.000526492
0.000502631
0.000524318
0.000461882
0.000512995
0.000525729
0.000501875
0.000523541
0.00046117
0.00051222
0.00052565
0.000501797
0.00052346
0.000461096
0.000512139
0.000525333
0.000501484
0.000523137
0.000460801
0.000511816
0.000525302
0.000501454
0.000523105
0.000460772
0.000511784
0.000525215
0.000501368
0.000523017
0.000460691
0.000511696
0.000525215
0.000501368
0.000523017
0.000460691
0.000511696
0.000525302
0.000501454
0.000523105
0.000460772
0.000511784
0.000525333
0.000501484
0.000523137
0.000460801
0.000511816
0.00052565
0.000501797
0.00052346
0.000461096
0.000512139
0.000525729
0.000501875
0.000523541
0.00046117
0.00051222
0.000526492
0.000502631
0.000524318
0.000461882
0.000512995
0.000526652
0.000502788
0.000524481
0.000462029
0.000513159
0.000528456
0.000504589
0.00052631
0.000463731
0.000514986
0.000528711
0.00050484
0.000526567
0.000463966
0.000515245
0.000533621
0.000509826
0.000531516
0.000468836
0.000520344
0.000533255
0.000509694
0.000531527
0.000468818
0.000518731
0.000528431
0.000504798
0.000526667
0.000464038
0.000513719
0.000528179
0.000504549
0.000526413
0.000463806
0.000513463
0.000526378
0.000502753
0.000524588
0.000462109
0.000511642
0.000526219
0.000502597
0.000524426
0.000461962
0.000511479
0.000525456
0.000501841
0.000523649
0.00046125
0.000510705
0.000525377
0.000501763
0.000523569
0.000461177
0.000510624
0.00052506
0.000501449
0.000523245
0.000460881
0.000510301
0.000525029
0.000501419
0.000523214
0.000460852
0.000510269
0.000524943
0.000501334
0.000523125
0.000460771
0.000510181
0.000524943
0.000501334
0.000523125
0.000460771
0.000510181
0.000525029
0.000501419
0.000523214
0.000460852
0.000510269
0.00052506
0.000501449
0.000523245
0.000460881
0.000510301
0.000525377
0.000501763
0.000523569
0.000461177
0.000510624
0.000525456
0.000501841
0.000523649
0.00046125
0.000510705
0.000526219
0.000502597
0.000524426
0.000461962
0.000511479
0.000526378
0.000502753
0.000524588
0.000462109
0.000511642
0.000528179
0.000504549
0.000526413
0.000463806
0.000513463
0.000528431
0.000504798
0.000526667
0.000464038
0.000513719
0.000533255
0.000509694
0.000531527
0.000468818
0.000518731
0.000532907
0.000509572
0.000531547
0.000468736
0.000517137
0.000528166
0.000504763
0.000526775
0.000464046
0.000512209
0.000527916
0.000504517
0.000526523
0.000463816
0.000511956
0.00052612
0.000502726
0.000524703
0.000462123
0.000510142
0.000525962
0.000502571
0.000524542
0.000461977
0.000509981
0.000525199
0.000501815
0.000523765
0.000461266
0.000509207
0.000525121
0.000501738
0.000523685
0.000461193
0.000509126
0.000524803
0.000501424
0.000523361
0.000460897
0.000508803
0.000524772
0.000501394
0.00052333
0.000460869
0.000508772
0.000524686
0.000501308
0.000523241
0.000460788
0.000508683
0.000524686
0.000501308
0.000523241
0.000460788
0.000508683
0.000524772
0.000501394
0.00052333
0.000460869
0.000508772
0.000524803
0.000501424
0.000523361
0.000460897
0.000508803
0.000525121
0.000501738
0.000523685
0.000461193
0.000509126
0.000525199
0.000501815
0.000523765
0.000461266
0.000509207
0.000525962
0.000502571
0.000524542
0.000461977
0.000509981
0.00052612
0.000502726
0.000524703
0.000462123
0.000510142
0.000527916
0.000504517
0.000526523
0.000463816
0.000511956
0.000528166
0.000504763
0.000526775
0.000464046
0.000512209
0.000532907
0.000509572
0.000531547
0.000468736
0.000517137
0.000532577
0.00050946
0.000531578
0.000468591
0.000515493
0.000527917
0.000504737
0.000526891
0.000463989
0.000510649
0.00052767
0.000504494
0.000526642
0.000463762
0.000510399
0.000525878
0.000502707
0.000524827
0.000462075
0.000508592
0.000525721
0.000502553
0.000524667
0.00046193
0.000508432
0.000524958
0.000501797
0.000523891
0.000461218
0.000507659
0.00052488
0.000501721
0.000523811
0.000461146
0.000507579
0.000524562
0.000501406
0.000523487
0.00046085
0.000507256
0.000524531
0.000501377
0.000523456
0.000460822
0.000507225
0.000524445
0.000501291
0.000523367
0.000460741
0.000507137
0.000524445
0.000501291
0.000523367
0.000460741
0.000507137
0.000524531
0.000501377
0.000523456
0.000460822
0.000507225
0.000524562
0.000501406
0.000523487
0.00046085
0.000507256
0.00052488
0.000501721
0.000523811
0.000461146
0.000507579
0.000524958
0.000501797
0.000523891
0.000461218
0.000507659
0.000525721
0.000502553
0.000524667
0.00046193
0.000508432
0.000525878
0.000502707
0.000524827
0.000462075
0.000508592
0.00052767
0.000504494
0.000526642
0.000463762
0.000510399
0.000527917
0.000504737
0.000526891
0.000463989
0.000510649
0.000532577
0.00050946
0.000531578
0.000468591
0.000515493
-1.6784e-05
1.6257e-05
3.11278e-06
7.54185e-07
2.66487e-07
1.83843e-07
1.66163e-07
1.62696e-07
1.61865e-07
1.61677e-07
1.61619e-07
1.61594e-07
1.61496e-07
1.61386e-07
1.60519e-07
1.59851e-07
1.53415e-07
1.50645e-07
1.11916e-07
1.07812e-07
-1.68749e-05
1.62267e-05
3.13604e-06
7.61497e-07
2.68298e-07
1.84281e-07
1.66252e-07
1.62704e-07
1.61851e-07
1.61657e-07
1.61598e-07
1.61572e-07
1.61472e-07
1.6136e-07
1.60478e-07
1.59803e-07
1.53295e-07
1.50518e-07
1.11616e-07
1.076e-07
-1.68711e-05
1.6219e-05
3.13388e-06
7.6125e-07
2.68264e-07
1.84281e-07
1.66252e-07
1.62705e-07
1.61851e-07
1.61657e-07
1.61598e-07
1.61572e-07
1.61471e-07
1.61359e-07
1.60478e-07
1.59802e-07
1.53294e-07
1.50516e-07
1.11613e-07
1.07598e-07
-1.68504e-05
1.61728e-05
3.12056e-06
7.59584e-07
2.68006e-07
1.8426e-07
1.66251e-07
1.62705e-07
1.6185e-07
1.61656e-07
1.61597e-07
1.61571e-07
1.6147e-07
1.61358e-07
1.60475e-07
1.59799e-07
1.53286e-07
1.50509e-07
1.11601e-07
1.07592e-07
-1.68475e-05
1.61677e-05
3.11883e-06
7.59317e-07
2.67953e-07
1.84251e-07
1.66249e-07
1.62704e-07
1.6185e-07
1.61656e-07
1.61597e-07
1.61571e-07
1.6147e-07
1.61357e-07
1.60475e-07
1.59799e-07
1.53286e-07
1.50509e-07
1.11601e-07
1.07591e-07
-1.68368e-05
1.61478e-05
3.1124e-06
7.5837e-07
2.67766e-07
1.84223e-07
1.66243e-07
1.62703e-07
1.6185e-07
1.61656e-07
1.61597e-07
1.61571e-07
1.6147e-07
1.61357e-07
1.60475e-07
1.59799e-07
1.53286e-07
1.50509e-07
1.11601e-07
1.07591e-07
-1.68355e-05
1.61453e-05
3.11159e-06
7.58241e-07
2.67739e-07
1.84218e-07
1.66242e-07
1.62703e-07
1.6185e-07
1.61656e-07
1.61597e-07
1.61571e-07
1.6147e-07
1.61357e-07
1.60475e-07
1.59799e-07
1.53286e-07
1.50509e-07
1.11601e-07
1.07591e-07
-1.68312e-05
1.61373e-05
3.10905e-06
7.57868e-07
2.67665e-07
1.84207e-07
1.6624e-07
1.62703e-07
1.6185e-07
1.61656e-07
1.61597e-07
1.61571e-07
1.6147e-07
1.61357e-07
1.60475e-07
1.59799e-07
1.53286e-07
1.50509e-07
1.11601e-07
1.07591e-07
-1.68308e-05
1.61364e-05
3.10875e-06
7.5782e-07
2.67655e-07
1.84205e-07
1.66239e-07
1.62703e-07
1.6185e-07
1.61656e-07
1.61597e-07
1.61571e-07
1.6147e-07
1.61357e-07
1.60475e-07
1.59799e-07
1.53286e-07
1.50509e-07
1.11601e-07
1.07591e-07
-1.68297e-05
1.61342e-05
3.10809e-06
7.57724e-07
2.67636e-07
1.84202e-07
1.66239e-07
1.62703e-07
1.6185e-07
1.61656e-07
1.61597e-07
1.61571e-07
1.6147e-07
1.61357e-07
1.60475e-07
1.59799e-07
1.53286e-07
1.50509e-07
1.11601e-07
1.07591e-07
-1.68297e-05
1.61342e-05
3.10809e-06
7.57724e-07
2.67636e-07
1.84202e-07
1.66239e-07
1.62703e-07
1.6185e-07
1.61656e-07
1.61597e-07
1.61571e-07
1.6147e-07
1.61357e-07
1.60475e-07
1.59799e-07
1.53286e-07
1.50509e-07
1.11601e-07
1.07591e-07
-1.68308e-05
1.61364e-05
3.10875e-06
7.5782e-07
2.67655e-07
1.84205e-07
1.66239e-07
1.62703e-07
1.6185e-07
1.61656e-07
1.61597e-07
1.61571e-07
1.6147e-07
1.61357e-07
1.60475e-07
1.59799e-07
1.53286e-07
1.50509e-07
1.11601e-07
1.07591e-07
-1.68312e-05
1.61373e-05
3.10905e-06
7.57868e-07
2.67665e-07
1.84207e-07
1.6624e-07
1.62703e-07
1.6185e-07
1.61656e-07
1.61597e-07
1.61571e-07
1.6147e-07
1.61357e-07
1.60475e-07
1.59799e-07
1.53286e-07
1.50509e-07
1.11601e-07
1.07591e-07
-1.68355e-05
1.61453e-05
3.11159e-06
7.58241e-07
2.67739e-07
1.84218e-07
1.66242e-07
1.62703e-07
1.6185e-07
1.61656e-07
1.61597e-07
1.61571e-07
1.6147e-07
1.61357e-07
1.60475e-07
1.59799e-07
1.53286e-07
1.50509e-07
1.11601e-07
1.07591e-07
-1.68368e-05
1.61478e-05
3.1124e-06
7.5837e-07
2.67766e-07
1.84223e-07
1.66243e-07
1.62703e-07
1.6185e-07
1.61656e-07
1.61597e-07
1.61571e-07
1.6147e-07
1.61357e-07
1.60475e-07
1.59799e-07
1.53286e-07
1.50509e-07
1.11601e-07
1.07591e-07
-1.68475e-05
1.61677e-05
3.11883e-06
7.59317e-07
2.67953e-07
1.84251e-07
1.66249e-07
1.62704e-07
1.6185e-07
1.61656e-07
1.61597e-07
1.61571e-07
1.6147e-07
1.61357e-07
1.60475e-07
1.59799e-07
1.53286e-07
1.50509e-07
1.11601e-07
1.07591e-07
-1.68504e-05
1.61728e-05
3.12056e-06
7.59584e-07
2.68006e-07
1.8426e-07
1.66251e-07
1.62705e-07
1.6185e-07
1.61656e-07
1.61597e-07
1.61571e-07
1.6147e-07
1.61358e-07
1.60475e-07
1.59799e-07
1.53286e-07
1.50509e-07
1.11601e-07
1.07592e-07
-1.68711e-05
1.6219e-05
3.13388e-06
7.6125e-07
2.68264e-07
1.84281e-07
1.66252e-07
1.62705e-07
1.61851e-07
1.61657e-07
1.61598e-07
1.61572e-07
1.61471e-07
1.61359e-07
1.60478e-07
1.59802e-07
1.53294e-07
1.50516e-07
1.11613e-07
1.07598e-07
-1.68749e-05
1.62267e-05
3.13604e-06
7.61497e-07
2.68298e-07
1.84281e-07
1.66252e-07
1.62704e-07
1.61851e-07
1.61657e-07
1.61598e-07
1.61572e-07
1.61472e-07
1.6136e-07
1.60478e-07
1.59803e-07
1.53295e-07
1.50518e-07
1.11616e-07
1.076e-07
-1.6784e-05
1.6257e-05
3.11278e-06
7.54185e-07
2.66487e-07
1.83843e-07
1.66163e-07
1.62696e-07
1.61865e-07
1.61677e-07
1.61619e-07
1.61594e-07
1.61496e-07
1.61386e-07
1.60519e-07
1.59851e-07
1.53415e-07
1.50645e-07
1.11916e-07
1.07812e-07
-1.64071e-05
1.6433e-05
3.14113e-06
7.60181e-07
2.67607e-07
1.84091e-07
1.66206e-07
1.62777e-07
1.61957e-07
1.61766e-07
1.61707e-07
1.61682e-07
1.61582e-07
1.6147e-07
1.60564e-07
1.59834e-07
1.53333e-07
1.50537e-07
1.11321e-07
1.07188e-07
-1.64924e-05
1.64028e-05
3.16465e-06
7.67572e-07
2.69439e-07
1.84533e-07
1.66298e-07
1.62783e-07
1.61943e-07
1.61747e-07
1.61686e-07
1.6166e-07
1.61558e-07
1.61444e-07
1.60522e-07
1.59784e-07
1.53212e-07
1.5041e-07
1.11017e-07
1.06972e-07
-1.64883e-05
1.63949e-05
3.16248e-06
7.67323e-07
2.69405e-07
1.84533e-07
1.66299e-07
1.62783e-07
1.61943e-07
1.61746e-07
1.61686e-07
1.6166e-07
1.61558e-07
1.61444e-07
1.60521e-07
1.59783e-07
1.5321e-07
1.50408e-07
1.11014e-07
1.0697e-07