# Probe 0 (0.085 0.04 0.001)
# Probe 1 (0.085 0.04 0.003)
# Probe 2 (0.085 0.04 0.005)
# Probe 3 (0.085 0.04 0.007)
# Probe 4 (0.085 0.04 0.009)
# Probe 5 (0.085 0.04 0.011)
# Probe 6 (0.085 0.04 0.013)
# Probe 7 (0.085 0.04 0.015)
# Probe 8 (0.085 0.04 0.017)
# Probe 9 (0.085 0.04 0.019)
# Time        0             1             2             3             4             5             6             7             8             9            
0             0             0             0             0             0             0             0             0             0             0            
0.1           0.0119546     0.0119546     0.0119546     0.0119546     0.0119546     0.0119546     0.0119546     0.0119546     0.0119546     0.0119546    
0.2           0.0238189     0.0238189     0.0238189     0.0238189     0.0238189     0.0238189     0.0238189     0.0238189     0.0238189     0.0238189    
0.3           0.0355678     0.0355678     0.0355678     0.0355678     0.0355678     0.0355678     0.0355678     0.0355678     0.0355678     0.0355678    
0.4           0.0471715     0.0471715     0.0471715     0.0471715     0.0471715     0.0471715     0.0471715     0.0471715     0.0471715     0.0471715    
0.5           0.0586067     0.0586067     0.0586067     0.0586067     0.0586067     0.0586067     0.0586067     0.0586067     0.0586067     0.0586067    
0.6           0.0698599     0.0698599     0.0698599     0.0698599     0.0698599     0.0698599     0.0698599     0.0698599     0.0698599     0.0698599    
0.7           0.0809244     0.0809244     0.0809244     0.0809244     0.0809244     0.0809244     0.0809244     0.0809244     0.0809244     0.0809244    
0.8           0.0917981     0.0917981     0.0917981     0.0917981     0.0917981     0.0917981     0.0917981     0.0917981     0.0917981     0.0917981    
0.9           0.102481      0.102481      0.102481      0.102481      0.102481      0.102481      0.102481      0.102481      0.102481      0.102481     
1             0.112975      0.112975      0.112975      0.112975      0.112975      0.112975      0.112975      0.112975      0.112975      0.112975     
1.1           0.123283      0.123283      0.123283      0.123283      0.123283      0.123283      0.123283      0.123283      0.123283      0.123283     
1.2           0.133408      0.133408      0.133408      0.133408      0.133408      0.133408      0.133408      0.133408      0.133408      0.133408     
1.3           0.143353      0.143353      0.143353      0.143353      0.143353      0.143353      0.143353      0.143353      0.143353      0.143353     
1.4           0.153121      0.153121      0.153121      0.153121      0.153121      0.153121      0.153121      0.153121      0.153121      0.153121     
1.5           0.162717      0.162717      0.162717      0.162717      0.162717      0.162717      0.162717      0.162717      0.162717      0.162717     
1.6           0.172142      0.172142      0.172142      0.172142      0.172142      0.172142      0.172142      0.172142      0.172142      0.172142     
1.7           0.181401      0.181401      0.181401      0.181401      0.181401      0.181401      0.181401      0.181401      0.181401      0.181401     
1.8           0.190497      0.190497      0.190497      0.190497      0.190497      0.190497      0.190497      0.190497      0.190497      0.190497     
1.9           0.199433      0.199433      0.199433      0.199433      0.199433      0.199433      0.199433      0.199433      0.199433      0.199433     
2             0.208212      0.208212      0.208212      0.208212      0.208212      0.208212      0.208212      0.208212      0.208212      0.208212     
2.1           0.216837      0.216837      0.216837      0.216837      0.216837      0.216837      0.216837      0.216837      0.216837      0.216837     
2.2           0.225313      0.225313      0.225313      0.225313      0.225313      0.225313      0.225313      0.225313      0.225313      0.225313     
2.3           0.23364       0.23364       0.23364       0.23364       0.23364       0.23364       0.23364       0.23364       0.23364       0.23364      
2.4           0.241823      0.241823      0.241823      0.241823      0.241823      0.241823      0.241823      0.241823      0.241823      0.241823     
2.5           0.249864      0.249864      0.249864      0.249864      0.249864      0.249864      0.249864      0.249864      0.249864      0.249864     
2.6           0.257766      0.257766      0.257766      0.257766      0.257766      0.257766      0.257766      0.257766      0.257766      0.257766     
2.7           0.265532      0.265532      0.265532      0.265532      0.265532      0.265532      0.265533      0.265533      0.265533      0.265533     
2.8           0.273165      0.273165      0.273165      0.273165      0.273165      0.273165      0.273165      0.273165      0.273165      0.273165     
2.9           0.280667      0.280667      0.280667      0.280667      0.280667      0.280667      0.280667      0.280667      0.280667      0.280667     
3             0.28804       0.28804       0.28804       0.28804       0.28804       0.28804       0.28804       0.28804       0.28804       0.28804      
3.1           0.295287      0.295287      0.295287      0.295287      0.295287      0.295287      0.295287      0.295287      0.295287      0.295287     
3.2           0.302412      0.302412      0.302412      0.302412      0.302412      0.302412      0.302412      0.302412      0.302412      0.302412     
3.3           0.309415      0.309415      0.309415      0.309415      0.309415      0.309415      0.309415      0.309415      0.309415      0.309415     
3.4           0.3163        0.3163        0.3163        0.3163        0.3163        0.3163        0.3163        0.3163        0.3163        0.3163       
3.5           0.323068      0.323068      0.323068      0.323068      0.323068      0.323068      0.323068      0.323068      0.323068      0.323068     
3.6           0.329723      0.329723      0.329723      0.329723      0.329723      0.329723      0.329723      0.329723      0.329723      0.329723     
3.7           0.336266      0.336266      0.336266      0.336266      0.336266      0.336266      0.336266      0.336266      0.336266      0.336266     
3.8           0.342699      0.342699      0.342699      0.342699      0.342699      0.342699      0.342699      0.342699      0.342699      0.342699     
3.9           0.349025      0.349025      0.349025      0.349025      0.349025      0.349025      0.349025      0.349025      0.349025      0.349025     
4             0.355245      0.355245      0.355245      0.355245      0.355245      0.355245      0.355245      0.355245      0.355245      0.355245     
4.1           0.361363      0.361363      0.361363      0.361363      0.361363      0.361363      0.361363      0.361363      0.361363      0.361363     
4.2           0.367379      0.367379      0.367379      0.367379      0.367379      0.367379      0.367379      0.367379      0.367379      0.367379     
4.3           0.373295      0.373295      0.373295      0.373295      0.373295      0.373295      0.373295      0.373295      0.373295      0.373295     
4.4           0.379115      0.379115      0.379115      0.379115      0.379115      0.379115      0.379115      0.379115      0.379115      0.379115     
4.5           0.384839      0.384839      0.384839      0.384839      0.384839      0.384839      0.384839      0.384839      0.384839      0.384839     
4.6           0.390469      0.390469      0.390469      0.390469      0.390469      0.390469      0.390469      0.390469      0.390469      0.390469     
4.7           0.396007      0.396007      0.396007      0.396007      0.396007      0.396007      0.396007      0.396007      0.396007      0.396007     
4.8           0.401455      0.401455      0.401455      0.401455      0.401455      0.401455      0.401455      0.401455      0.401455      0.401455     
4.9           0.406815      0.406815      0.406815      0.406815      0.406815      0.406815      0.406815      0.406815      0.406815      0.406815     
5             0.412088      0.412088      0.412088      0.412088      0.412088      0.412088      0.412088      0.412088      0.412088      0.412088     
