/*--------------------------------*- C++ -*----------------------------------*\
  =========                 |
  \\      /  F ield         | OpenFOAM: The Open Source CFD Toolbox
   \\    /   O peration     | Website:  https://openfoam.org
    \\  /    A nd           | Version:  8
     \\/     M anipulation  |
\*---------------------------------------------------------------------------*/
FoamFile
{
    version     2.0;
    format      ascii;
    class       volScalarField;
    location    "4.1";
    object      H2;
}
// * * * * * * * * * * * * * * * * * * * * * * * * * * * * * * * * * * * * * //

dimensions      [0 1 -1 0 0 0 0];

internalField   nonuniform List<scalar> 
180000
(
9.84489e-26
3.72591e-21
9.68254e-17
1.95587e-12
3.20942e-08
1.30552e-25
4.45857e-21
1.1115e-16
2.18962e-12
3.52722e-08
1.30917e-25
4.4671e-21
1.11308e-16
2.19185e-12
3.52951e-08
1.31836e-25
4.48922e-21
1.11721e-16
2.19783e-12
3.53568e-08
1.31644e-25
4.48475e-21
1.11625e-16
2.19603e-12
3.5327e-08
1.31047e-25
4.47103e-21
1.11337e-16
2.19077e-12
3.52427e-08
1.30935e-25
4.4684e-21
1.11281e-16
2.18972e-12
3.52256e-08
1.3066e-25
4.462e-21
1.11146e-16
2.18725e-12
3.51859e-08
1.30618e-25
4.46099e-21
1.11124e-16
2.18684e-12
3.51792e-08
1.30546e-25
4.4593e-21
1.11088e-16
2.18618e-12
3.51684e-08
1.30546e-25
4.4593e-21
1.11088e-16
2.18618e-12
3.51684e-08
1.30618e-25
4.46099e-21
1.11124e-16
2.18684e-12
3.51792e-08
1.3066e-25
4.462e-21
1.11146e-16
2.18725e-12
3.51859e-08
1.30935e-25
4.4684e-21
1.11281e-16
2.18972e-12
3.52256e-08
1.31047e-25
4.47103e-21
1.11337e-16
2.19077e-12
3.52427e-08
1.31644e-25
4.48475e-21
1.11625e-16
2.19603e-12
3.5327e-08
1.31836e-25
4.48922e-21
1.11721e-16
2.19783e-12
3.53568e-08
1.30917e-25
4.4671e-21
1.11308e-16
2.19185e-12
3.52951e-08
1.30552e-25
4.45857e-21
1.1115e-16
2.18962e-12
3.52722e-08
9.84489e-26
3.72591e-21
9.68254e-17
1.95587e-12
3.20942e-08
9.84467e-26
3.72578e-21
9.68194e-17
1.95765e-12
3.5352e-08
1.30549e-25
4.45841e-21
1.11143e-16
2.19146e-12
3.86878e-08
1.30915e-25
4.46695e-21
1.11301e-16
2.19369e-12
3.87092e-08
1.31833e-25
4.48906e-21
1.11714e-16
2.19966e-12
3.87634e-08
1.31642e-25
4.48459e-21
1.11619e-16
2.19785e-12
3.873e-08
1.31044e-25
4.47087e-21
1.1133e-16
2.19258e-12
3.8635e-08
1.30932e-25
4.46824e-21
1.11274e-16
2.19154e-12
3.86159e-08
1.30658e-25
4.46184e-21
1.11139e-16
2.18906e-12
3.85712e-08
1.30615e-25
4.46083e-21
1.11117e-16
2.18865e-12
3.85637e-08
1.30543e-25
4.45914e-21
1.11081e-16
2.18799e-12
3.85514e-08
1.30543e-25
4.45914e-21
1.11081e-16
2.18799e-12
3.85514e-08
1.30615e-25
4.46083e-21
1.11117e-16
2.18865e-12
3.85637e-08
1.30658e-25
4.46184e-21
1.11139e-16
2.18906e-12
3.85712e-08
1.30932e-25
4.46824e-21
1.11274e-16
2.19154e-12
3.86159e-08
1.31044e-25
4.47087e-21
1.1133e-16
2.19258e-12
3.8635e-08
1.31642e-25
4.48459e-21
1.11619e-16
2.19785e-12
3.873e-08
1.31833e-25
4.48906e-21
1.11714e-16
2.19966e-12
3.87634e-08
1.30915e-25
4.46695e-21
1.11301e-16
2.19369e-12
3.87092e-08
1.30549e-25
4.45841e-21
1.11143e-16
2.19146e-12
3.86878e-08
9.84467e-26
3.72578e-21
9.68194e-17
1.95765e-12
3.5352e-08
9.84447e-26
3.72556e-21
9.68158e-17
1.96911e-12
5.22794e-08
1.30547e-25
4.45813e-21
1.11138e-16
2.20321e-12
5.61688e-08
1.30912e-25
4.46667e-21
1.11296e-16
2.20543e-12
5.61835e-08
1.31831e-25
4.48878e-21
1.11709e-16
2.21135e-12
5.62098e-08
1.31639e-25
4.48431e-21
1.11613e-16
2.20954e-12
5.61632e-08
1.31042e-25
4.47059e-21
1.11325e-16
2.20423e-12
5.6029e-08
1.3093e-25
4.46796e-21
1.11269e-16
2.20317e-12
5.60022e-08
1.30655e-25
4.46156e-21
1.11134e-16
2.20068e-12
5.5939e-08
1.30613e-25
4.46055e-21
1.11112e-16
2.20027e-12
5.59282e-08
1.30541e-25
4.45886e-21
1.11076e-16
2.1996e-12
5.59106e-08
1.30541e-25
4.45886e-21
1.11076e-16
2.1996e-12
5.59106e-08
1.30613e-25
4.46055e-21
1.11112e-16
2.20027e-12
5.59282e-08
1.30655e-25
4.46156e-21
1.11134e-16
2.20068e-12
5.5939e-08
1.3093e-25
4.46796e-21
1.11269e-16
2.20317e-12
5.60022e-08
1.31042e-25
4.47059e-21
1.11325e-16
2.20423e-12
5.6029e-08
1.31639e-25
4.48431e-21
1.11613e-16
2.20954e-12
5.61632e-08
1.31831e-25
4.48878e-21
1.11709e-16
2.21135e-12
5.62098e-08
1.30912e-25
4.46667e-21
1.11296e-16
2.20543e-12
5.61835e-08
1.30547e-25
4.45813e-21
1.11138e-16
2.20321e-12
5.61689e-08
9.84447e-26
3.72556e-21
9.68158e-17
1.96911e-12
5.22794e-08
9.84426e-26
3.72518e-21
9.68305e-17
2.00509e-12
9.49282e-08
1.30544e-25
4.45768e-21
1.11151e-16
2.23977e-12
9.96793e-08
1.3091e-25
4.46622e-21
1.11308e-16
2.24196e-12
9.96809e-08
1.31828e-25
4.48833e-21
1.11722e-16
2.24776e-12
9.96625e-08
1.31637e-25
4.48386e-21
1.11626e-16
2.24591e-12
9.9593e-08
1.31039e-25
4.47014e-21
1.11338e-16
2.2405e-12
9.93937e-08
1.30927e-25
4.46751e-21
1.11282e-16
2.23942e-12
9.93537e-08
1.30653e-25
4.46111e-21
1.11147e-16
2.23688e-12
9.92591e-08
1.3061e-25
4.4601e-21
1.11125e-16
2.23646e-12
9.92427e-08
1.30538e-25
4.45841e-21
1.11089e-16
2.23578e-12
9.92162e-08
1.30538e-25
4.45841e-21
1.11089e-16
2.23578e-12
9.92162e-08
1.3061e-25
4.4601e-21
1.11125e-16
2.23646e-12
9.92427e-08
1.30653e-25
4.46111e-21
1.11147e-16
2.23688e-12
9.92591e-08
1.30927e-25
4.46751e-21
1.11282e-16
2.23942e-12
9.93537e-08
1.31039e-25
4.47014e-21
1.11338e-16
2.2405e-12
9.93937e-08
1.31637e-25
4.48386e-21
1.11626e-16
2.24591e-12
9.9593e-08
1.31828e-25
4.48833e-21
1.11722e-16
2.24776e-12
9.96625e-08
1.3091e-25
4.46622e-21
1.11308e-16
2.24196e-12
9.96809e-08
1.30544e-25
4.45768e-21
1.11151e-16
2.23977e-12
9.96793e-08
9.84425e-26
3.72518e-21
9.68305e-17
2.00509e-12
9.49282e-08
9.84401e-26
3.7247e-21
9.68897e-17
2.08374e-12
1.68939e-07
1.30541e-25
4.45708e-21
1.11207e-16
2.31912e-12
1.74529e-07
1.30907e-25
4.46563e-21
1.11365e-16
2.32127e-12
1.74511e-07
1.31826e-25
4.48774e-21
1.11778e-16
2.32681e-12
1.7443e-07
1.31634e-25
4.48327e-21
1.11682e-16
2.3249e-12
1.74332e-07
1.31036e-25
4.46955e-21
1.11394e-16
2.3193e-12
1.74054e-07
1.30925e-25
4.46692e-21
1.11338e-16
2.31819e-12
1.73997e-07
1.3065e-25
4.46053e-21
1.11202e-16
2.31557e-12
1.73864e-07
1.30607e-25
4.45952e-21
1.11181e-16
2.31513e-12
1.7384e-07
1.30535e-25
4.45782e-21
1.11145e-16
2.31442e-12
1.73802e-07
1.30535e-25
4.45782e-21
1.11145e-16
2.31442e-12
1.73802e-07
1.30607e-25
4.45952e-21
1.11181e-16
2.31513e-12
1.7384e-07
1.3065e-25
4.46053e-21
1.11202e-16
2.31557e-12
1.73864e-07
1.30925e-25
4.46692e-21
1.11338e-16
2.31819e-12
1.73997e-07
1.31036e-25
4.46955e-21
1.11394e-16
2.3193e-12
1.74054e-07
1.31634e-25
4.48327e-21
1.11682e-16
2.3249e-12
1.74332e-07
1.31826e-25
4.48774e-21
1.11778e-16
2.32681e-12
1.7443e-07
1.30907e-25
4.46563e-21
1.11365e-16
2.32127e-12
1.74511e-07
1.30541e-25
4.45708e-21
1.11207e-16
2.31912e-12
1.74529e-07
9.84401e-26
3.7247e-21
9.68897e-17
2.08374e-12
1.68939e-07
9.84374e-26
3.72417e-21
9.70321e-17
2.22391e-12
2.75391e-07
1.30537e-25
4.45641e-21
1.11346e-16
2.45982e-12
2.81565e-07
1.30904e-25
4.46497e-21
1.11503e-16
2.46187e-12
2.81518e-07
1.31822e-25
4.48707e-21
1.11916e-16
2.46697e-12
2.81333e-07
1.31631e-25
4.48261e-21
1.11819e-16
2.46496e-12
2.81202e-07
1.31033e-25
4.46889e-21
1.11531e-16
2.45906e-12
2.80827e-07
1.30921e-25
4.46626e-21
1.11474e-16
2.4579e-12
2.80751e-07
1.30647e-25
4.45987e-21
1.11339e-16
2.45513e-12
2.80571e-07
1.30604e-25
4.45886e-21
1.11317e-16
2.45467e-12
2.80539e-07
1.30532e-25
4.45717e-21
1.11281e-16
2.45392e-12
2.80488e-07
1.30532e-25
4.45717e-21
1.11281e-16
2.45392e-12
2.80488e-07
1.30604e-25
4.45886e-21
1.11317e-16
2.45467e-12
2.80539e-07
1.30647e-25
4.45987e-21
1.11339e-16
2.45513e-12
2.80571e-07
1.30921e-25
4.46626e-21
1.11474e-16
2.4579e-12
2.80751e-07
1.31033e-25
4.46889e-21
1.11531e-16
2.45906e-12
2.80827e-07
1.31631e-25
4.48261e-21
1.11819e-16
2.46496e-12
2.81202e-07
1.31822e-25
4.48707e-21
1.11916e-16
2.46697e-12
2.81333e-07
1.30904e-25
4.46497e-21
1.11503e-16
2.46187e-12
2.81518e-07
1.30537e-25
4.45641e-21
1.11346e-16
2.45982e-12
2.81565e-07
9.84374e-26
3.72417e-21
9.70321e-17
2.22391e-12
2.75391e-07
9.84344e-26
3.72369e-21
9.73084e-17
2.44467e-12
4.14659e-07
1.30533e-25
4.45575e-21
1.11616e-16
2.68056e-12
4.21046e-07
1.309e-25
4.46433e-21
1.11774e-16
2.68246e-12
4.20955e-07
1.31819e-25
4.48643e-21
1.12184e-16
2.68684e-12
4.20596e-07
1.31627e-25
4.48196e-21
1.12088e-16
2.68469e-12
4.20423e-07
1.3103e-25
4.46825e-21
1.11798e-16
2.67835e-12
4.19925e-07
1.30918e-25
4.46562e-21
1.11742e-16
2.6771e-12
4.19824e-07
1.30643e-25
4.45923e-21
1.11606e-16
2.67412e-12
4.19586e-07
1.30601e-25
4.45822e-21
1.11584e-16
2.67363e-12
4.19544e-07
1.30529e-25
4.45653e-21
1.11548e-16
2.67282e-12
4.19476e-07
1.30529e-25
4.45653e-21
1.11548e-16
2.67282e-12
4.19476e-07
1.30601e-25
4.45822e-21
1.11584e-16
2.67363e-12
4.19544e-07
1.30643e-25
4.45923e-21
1.11606e-16
2.67412e-12
4.19586e-07
1.30918e-25
4.46562e-21
1.11742e-16
2.6771e-12
4.19824e-07
1.3103e-25
4.46825e-21
1.11798e-16
2.67835e-12
4.19925e-07
1.31627e-25
4.48196e-21
1.12088e-16
2.68469e-12
4.20423e-07
1.31819e-25
4.48643e-21
1.12184e-16
2.68684e-12
4.20596e-07
1.309e-25
4.46433e-21
1.11774e-16
2.68246e-12
4.20955e-07
1.30533e-25
4.45575e-21
1.11616e-16
2.68056e-12
4.21046e-07
9.84344e-26
3.72369e-21
9.73084e-17
2.44467e-12
4.14659e-07
9.84313e-26
3.72339e-21
9.77819e-17
2.76552e-12
5.87413e-07
1.30528e-25
4.45524e-21
1.1208e-16
3.00041e-12
5.93529e-07
1.30896e-25
4.46383e-21
1.12238e-16
3.00209e-12
5.93379e-07
1.31815e-25
4.48592e-21
1.12645e-16
3.00538e-12
5.92743e-07
1.31623e-25
4.48146e-21
1.12548e-16
3.00303e-12
5.92518e-07
1.31026e-25
4.46775e-21
1.12257e-16
2.99605e-12
5.91857e-07
1.30914e-25
4.46512e-21
1.122e-16
2.99469e-12
5.91726e-07
1.30639e-25
4.45872e-21
1.12064e-16
2.99141e-12
5.91412e-07
1.30597e-25
4.45772e-21
1.12042e-16
2.99087e-12
5.91357e-07
1.30525e-25
4.45602e-21
1.12005e-16
2.98997e-12
5.91266e-07
1.30525e-25
4.45602e-21
1.12005e-16
2.98997e-12
5.91266e-07
1.30597e-25
4.45772e-21
1.12042e-16
2.99087e-12
5.91357e-07
1.30639e-25
4.45872e-21
1.12064e-16
2.99141e-12
5.91412e-07
1.30914e-25
4.46512e-21
1.122e-16
2.99469e-12
5.91726e-07
1.31026e-25
4.46775e-21
1.12257e-16
2.99605e-12
5.91857e-07
1.31623e-25
4.48146e-21
1.12548e-16
3.00303e-12
5.92518e-07
1.31815e-25
4.48592e-21
1.12645e-16
3.00538e-12
5.92743e-07
1.30896e-25
4.46383e-21
1.12238e-16
3.00209e-12
5.93379e-07
1.30528e-25
4.45524e-21
1.1208e-16
3.00041e-12
5.93529e-07
9.84313e-26
3.72339e-21
9.77819e-17
2.76552e-12
5.87413e-07
9.84283e-26
3.72343e-21
9.85281e-17
3.20628e-12
7.94097e-07
1.30524e-25
4.45504e-21
1.12812e-16
3.43864e-12
7.99311e-07
1.30893e-25
4.46364e-21
1.12969e-16
3.44001e-12
7.9908e-07
1.31811e-25
4.48572e-21
1.13372e-16
3.44173e-12
7.98038e-07
1.31619e-25
4.48126e-21
1.13274e-16
3.43911e-12
7.97749e-07
1.31022e-25
4.46755e-21
1.12981e-16
3.43124e-12
7.96876e-07
1.3091e-25
4.46492e-21
1.12924e-16
3.42973e-12
7.96708e-07
1.30636e-25
4.45853e-21
1.12786e-16
3.42604e-12
7.96295e-07
1.30593e-25
4.45752e-21
1.12764e-16
3.42544e-12
7.96224e-07
1.30521e-25
4.45583e-21
1.12727e-16
3.42442e-12
7.96105e-07
1.30521e-25
4.45583e-21
1.12727e-16
3.42442e-12
7.96105e-07
1.30593e-25
4.45752e-21
1.12764e-16
3.42544e-12
7.96224e-07
1.30636e-25
4.45853e-21
1.12786e-16
3.42604e-12
7.96295e-07
1.3091e-25
4.46492e-21
1.12924e-16
3.42973e-12
7.96708e-07
1.31022e-25
4.46755e-21
1.12981e-16
3.43124e-12
7.96876e-07
1.31619e-25
4.48126e-21
1.13274e-16
3.43911e-12
7.97749e-07
1.31811e-25
4.48572e-21
1.13372e-16
3.44173e-12
7.98038e-07
1.30893e-25
4.46364e-21
1.12969e-16
3.44001e-12
7.9908e-07
1.30524e-25
4.45504e-21
1.12812e-16
3.43864e-12
7.99311e-07
9.84282e-26
3.72343e-21
9.85281e-17
3.20628e-12
7.94097e-07
9.84257e-26
3.72404e-21
9.96349e-17
3.7864e-12
1.03402e-06
1.30519e-25
4.45537e-21
1.13898e-16
4.01403e-12
1.03751e-06
1.30889e-25
4.46399e-21
1.14053e-16
4.01499e-12
1.03718e-06
1.31807e-25
4.48605e-21
1.14449e-16
4.0145e-12
1.03558e-06
1.31616e-25
4.48158e-21
1.1435e-16
4.01154e-12
1.03521e-06
1.31018e-25
4.46787e-21
1.14053e-16
4.0025e-12
1.03406e-06
1.30907e-25
4.46524e-21
1.13996e-16
4.00079e-12
1.03385e-06
1.30632e-25
4.45885e-21
1.13856e-16
3.99656e-12
1.03331e-06
1.30589e-25
4.45784e-21
1.13834e-16
3.99586e-12
1.03322e-06
1.30517e-25
4.45615e-21
1.13797e-16
3.99469e-12
1.03307e-06
1.30517e-25
4.45615e-21
1.13797e-16
3.99469e-12
1.03307e-06
1.30589e-25
4.45784e-21
1.13834e-16
3.99586e-12
1.03322e-06
1.30632e-25
4.45885e-21
1.13856e-16
3.99656e-12
1.03331e-06
1.30907e-25
4.46524e-21
1.13996e-16
4.00079e-12
1.03385e-06
1.31018e-25
4.46787e-21
1.14053e-16
4.0025e-12
1.03406e-06
1.31616e-25
4.48158e-21
1.1435e-16
4.01154e-12
1.03521e-06
1.31807e-25
4.48605e-21
1.14449e-16
4.0145e-12
1.03558e-06
1.30889e-25
4.46399e-21
1.14053e-16
4.01499e-12
1.03718e-06
1.30519e-25
4.45537e-21
1.13898e-16
4.01403e-12
1.03751e-06
9.84257e-26
3.72404e-21
9.96349e-17
3.7864e-12
1.03402e-06
9.84241e-26
3.72545e-21
1.01101e-16
4.36496e-12
1.03157e-06
1.30515e-25
4.45644e-21
1.15335e-16
4.58787e-12
1.0351e-06
1.30886e-25
4.46508e-21
1.1549e-16
4.58841e-12
1.03477e-06
1.31805e-25
4.48712e-21
1.15876e-16
4.58574e-12
1.03319e-06
1.31613e-25
4.48265e-21
1.15776e-16
4.58243e-12
1.03283e-06
1.31016e-25
4.46894e-21
1.15474e-16
4.57223e-12
1.03169e-06
1.30904e-25
4.46631e-21
1.15416e-16
4.57032e-12
1.03148e-06
1.30629e-25
4.45991e-21
1.15274e-16
4.56555e-12
1.03095e-06
1.30587e-25
4.4589e-21
1.15252e-16
4.56477e-12
1.03086e-06
1.30515e-25
4.45721e-21
1.15214e-16
4.56344e-12
1.03071e-06
1.30515e-25
4.45721e-21
1.15214e-16
4.56344e-12
1.03071e-06
1.30587e-25
4.4589e-21
1.15252e-16
4.56477e-12
1.03086e-06
1.30629e-25
4.45991e-21
1.15274e-16
4.56555e-12
1.03095e-06
1.30904e-25
4.46631e-21
1.15416e-16
4.57032e-12
1.03148e-06
1.31016e-25
4.46894e-21
1.15474e-16
4.57223e-12
1.03169e-06
1.31613e-25
4.48265e-21
1.15776e-16
4.58243e-12
1.03283e-06
1.31805e-25
4.48712e-21
1.15876e-16
4.58574e-12
1.03319e-06
1.30886e-25
4.46508e-21
1.1549e-16
4.58841e-12
1.03477e-06
1.30515e-25
4.45644e-21
1.15335e-16
4.58787e-12
1.0351e-06
9.84241e-26
3.72545e-21
1.01101e-16
4.36496e-12
1.03157e-06
9.84242e-26
3.72788e-21
1.02926e-16
4.94196e-12
1.02919e-06
1.30513e-25
4.45849e-21
1.17124e-16
5.16013e-12
1.03276e-06
1.30885e-25
4.46715e-21
1.17277e-16
5.16026e-12
1.03244e-06
1.31803e-25
4.48914e-21
1.17652e-16
5.15544e-12
1.03088e-06
1.31612e-25
4.48468e-21
1.1755e-16
5.15178e-12
1.03052e-06
1.31014e-25
4.47095e-21
1.17242e-16
5.14043e-12
1.0294e-06
1.30902e-25
4.46832e-21
1.17183e-16
5.13832e-12
1.02919e-06
1.30628e-25
4.46192e-21
1.17039e-16
5.13302e-12
1.02866e-06
1.30585e-25
4.46091e-21
1.17016e-16
5.13215e-12
1.02857e-06
1.30513e-25
4.45922e-21
1.16977e-16
5.13067e-12
1.02842e-06
1.30513e-25
4.45922e-21
1.16977e-16
5.13067e-12
1.02842e-06
1.30585e-25
4.46091e-21
1.17016e-16
5.13215e-12
1.02857e-06
1.30628e-25
4.46192e-21
1.17039e-16
5.13302e-12
1.02866e-06
1.30902e-25
4.46832e-21
1.17183e-16
5.13832e-12
1.02919e-06
1.31014e-25
4.47095e-21
1.17242e-16
5.14043e-12
1.0294e-06
1.31612e-25
4.48468e-21
1.1755e-16
5.15178e-12
1.03052e-06
1.31803e-25
4.48914e-21
1.17652e-16
5.15544e-12
1.03088e-06
1.30885e-25
4.46714e-21
1.17277e-16
5.16026e-12
1.03244e-06
1.30513e-25
4.45849e-21
1.17124e-16
5.16013e-12
1.03276e-06
9.84242e-26
3.72788e-21
1.02926e-16
4.94196e-12
1.02919e-06
9.84268e-26
3.73156e-21
1.05109e-16
5.51732e-12
1.02689e-06
1.30513e-25
4.46172e-21
1.19264e-16
5.73074e-12
1.0305e-06
1.30886e-25
4.47039e-21
1.19414e-16
5.73047e-12
1.03017e-06
1.31804e-25
4.49235e-21
1.19775e-16
5.7235e-12
1.02864e-06
1.31612e-25
4.48788e-21
1.19671e-16
5.71951e-12
1.02828e-06
1.31015e-25
4.47414e-21
1.19356e-16
5.70701e-12
1.02717e-06
1.30903e-25
4.47151e-21
1.19296e-16
5.70471e-12
1.02696e-06
1.30629e-25
4.4651e-21
1.19148e-16
5.69887e-12
1.02644e-06
1.30586e-25
4.46409e-21
1.19125e-16
5.69793e-12
1.02635e-06
1.30514e-25
4.46239e-21
1.19085e-16
5.69629e-12
1.0262e-06
1.30514e-25
4.46239e-21
1.19085e-16
5.69629e-12
1.0262e-06
1.30586e-25
4.46409e-21
1.19125e-16
5.69793e-12
1.02635e-06
1.30629e-25
4.4651e-21
1.19148e-16
5.69887e-12
1.02644e-06
1.30903e-25
4.47151e-21
1.19296e-16
5.70471e-12
1.02696e-06
1.31015e-25
4.47414e-21
1.19356e-16
5.70701e-12
1.02717e-06
1.31612e-25
4.48788e-21
1.19671e-16
5.71951e-12
1.02828e-06
1.31804e-25
4.49235e-21
1.19775e-16
5.7235e-12
1.02864e-06
1.30886e-25
4.47039e-21
1.19414e-16
5.73047e-12
1.03017e-06
1.30513e-25
4.46172e-21
1.19264e-16
5.73074e-12
1.0305e-06
9.84268e-26
3.73156e-21
1.05109e-16
5.51732e-12
1.02689e-06
9.84329e-26
3.7367e-21
1.07647e-16
6.09096e-12
1.02465e-06
1.30515e-25
4.46636e-21
1.21752e-16
6.29962e-12
1.02829e-06
1.3089e-25
4.47505e-21
1.219e-16
6.29895e-12
1.02797e-06
1.31808e-25
4.49694e-21
1.22244e-16
6.28987e-12
1.02646e-06
1.31616e-25
4.49246e-21
1.22138e-16
6.28553e-12
1.0261e-06
1.31019e-25
4.4787e-21
1.21815e-16
6.2719e-12
1.025e-06
1.30907e-25
4.47607e-21
1.21753e-16
6.2694e-12
1.0248e-06
1.30632e-25
4.46965e-21
1.21602e-16
6.26304e-12
1.02428e-06
1.3059e-25
4.46864e-21
1.21578e-16
6.26201e-12
1.02419e-06
1.30518e-25
4.46694e-21
1.21537e-16
6.26022e-12
1.02404e-06
1.30518e-25
4.46694e-21
1.21537e-16
6.26022e-12
1.02404e-06
1.3059e-25
4.46864e-21
1.21578e-16
6.26201e-12
1.02419e-06
1.30632e-25
4.46965e-21
1.21602e-16
6.26304e-12
1.02428e-06
1.30907e-25
4.47607e-21
1.21753e-16
6.2694e-12
1.0248e-06
1.31019e-25
4.4787e-21
1.21815e-16
6.2719e-12
1.025e-06
1.31616e-25
4.49246e-21
1.22138e-16
6.28553e-12
1.0261e-06
1.31808e-25
4.49694e-21
1.22244e-16
6.28987e-12
1.02646e-06
1.3089e-25
4.47505e-21
1.219e-16
6.29895e-12
1.02797e-06
1.30515e-25
4.46636e-21
1.21752e-16
6.29962e-12
1.02829e-06
9.84328e-26
3.7367e-21
1.07647e-16
6.09096e-12
1.02465e-06
9.84434e-26
3.74354e-21
1.1054e-16
6.66279e-12
1.02247e-06
1.30522e-25
4.47262e-21
1.24587e-16
6.86669e-12
1.02615e-06
1.30898e-25
4.48132e-21
1.24732e-16
6.86562e-12
1.02583e-06
1.31816e-25
4.50313e-21
1.25058e-16
6.85444e-12
1.02434e-06
1.31624e-25
4.49865e-21
1.24949e-16
6.84977e-12
1.02399e-06
1.31027e-25
4.48486e-21
1.24617e-16
6.83502e-12
1.02289e-06
1.30915e-25
4.48222e-21
1.24554e-16
6.83233e-12
1.02269e-06
1.3064e-25
4.47579e-21
1.24399e-16
6.82545e-12
1.02218e-06
1.30598e-25
4.47478e-21
1.24374e-16
6.82434e-12
1.02209e-06
1.30526e-25
4.47308e-21
1.24332e-16
6.82239e-12
1.02194e-06
1.30526e-25
4.47308e-21
1.24332e-16
6.82239e-12
1.02194e-06
1.30598e-25
4.47478e-21
1.24374e-16
6.82434e-12
1.02209e-06
1.3064e-25
4.47579e-21
1.24399e-16
6.82545e-12
1.02218e-06
1.30915e-25
4.48222e-21
1.24554e-16
6.83233e-12
1.02269e-06
1.31027e-25
4.48486e-21
1.24617e-16
6.83502e-12
1.02289e-06
1.31624e-25
4.49865e-21
1.24949e-16
6.84977e-12
1.02399e-06
1.31816e-25
4.50313e-21
1.25058e-16
6.85444e-12
1.02434e-06
1.30898e-25
4.48132e-21
1.24732e-16
6.86562e-12
1.02583e-06
1.30522e-25
4.47262e-21
1.24587e-16
6.86668e-12
1.02615e-06
9.84434e-26
3.74354e-21
1.1054e-16
6.66279e-12
1.02247e-06
9.84598e-26
3.75228e-21
1.13787e-16
7.23274e-12
1.02035e-06
1.30534e-25
4.48071e-21
1.27769e-16
7.43185e-12
1.02406e-06
1.30911e-25
4.48942e-21
1.27911e-16
7.43039e-12
1.02375e-06
1.31829e-25
4.51114e-21
1.28216e-16
7.41714e-12
1.02227e-06
1.31637e-25
4.50665e-21
1.28104e-16
7.41215e-12
1.02192e-06
1.3104e-25
4.49283e-21
1.27762e-16
7.39627e-12
1.02084e-06
1.30928e-25
4.49018e-21
1.27697e-16
7.3934e-12
1.02064e-06
1.30653e-25
4.48374e-21
1.27537e-16
7.386e-12
1.02013e-06
1.30611e-25
4.48272e-21
1.27511e-16
7.38481e-12
1.02005e-06
1.30539e-25
4.48101e-21
1.27468e-16
7.38271e-12
1.0199e-06
1.30539e-25
4.48101e-21
1.27468e-16
7.38271e-12
1.0199e-06
1.30611e-25
4.48272e-21
1.27511e-16
7.38481e-12
1.02005e-06
1.30653e-25
4.48374e-21
1.27537e-16
7.386e-12
1.02013e-06
1.30928e-25
4.49018e-21
1.27697e-16
7.3934e-12
1.02064e-06
1.3104e-25
4.49283e-21
1.27762e-16
7.39627e-12
1.02084e-06
1.31637e-25
4.50665e-21
1.28104e-16
7.41215e-12
1.02192e-06
1.31829e-25
4.51114e-21
1.28216e-16
7.41714e-12
1.02227e-06
1.30911e-25
4.48942e-21
1.27911e-16
7.43039e-12
1.02375e-06
1.30534e-25
4.4807e-21
1.27769e-16
7.43185e-12
1.02406e-06
9.84598e-26
3.75228e-21
1.13787e-16
7.23274e-12
1.02035e-06
9.84834e-26
3.76316e-21
1.17386e-16
7.8007e-12
1.01829e-06
1.30553e-25
4.49084e-21
1.31296e-16
7.99502e-12
1.02202e-06
1.30932e-25
4.49957e-21
1.31434e-16
7.99318e-12
1.02172e-06
1.31849e-25
4.52117e-21
1.31716e-16
7.97788e-12
1.02025e-06
1.31657e-25
4.51667e-21
1.31601e-16
7.97256e-12
1.01991e-06
1.31059e-25
4.5028e-21
1.31247e-16
7.95558e-12
1.01884e-06
1.30947e-25
4.50015e-21
1.3118e-16
7.95252e-12
1.01864e-06
1.30673e-25
4.49368e-21
1.31014e-16
7.94461e-12
1.01813e-06
1.3063e-25
4.49266e-21
1.30988e-16
7.94334e-12
1.01805e-06
1.30558e-25
4.49095e-21
1.30943e-16
7.9411e-12
1.0179e-06
1.30558e-25
4.49095e-21
1.30943e-16
7.9411e-12
1.0179e-06
1.3063e-25
4.49266e-21
1.30988e-16
7.94334e-12
1.01805e-06
1.30673e-25
4.49368e-21
1.31014e-16
7.94461e-12
1.01813e-06
1.30947e-25
4.50015e-21
1.3118e-16
7.95252e-12
1.01864e-06
1.31059e-25
4.5028e-21
1.31247e-16
7.95558e-12
1.01884e-06
1.31657e-25
4.51667e-21
1.31601e-16
7.97256e-12
1.01991e-06
1.31849e-25
4.52117e-21
1.31716e-16
7.97788e-12
1.02025e-06
1.30932e-25
4.49957e-21
1.31434e-16
7.99318e-12
1.02172e-06
1.30553e-25
4.49084e-21
1.31296e-16
7.99502e-12
1.02202e-06
9.84834e-26
3.76316e-21
1.17386e-16
7.8007e-12
1.01829e-06
9.85157e-26
3.77638e-21
1.21335e-16
8.36659e-12
1.01627e-06
1.30579e-25
4.50323e-21
1.35165e-16
8.5561e-12
1.02003e-06
1.3096e-25
4.51197e-21
1.35299e-16
8.55389e-12
1.01973e-06
1.31876e-25
4.53344e-21
1.35556e-16
8.53656e-12
1.01828e-06
1.31685e-25
4.52892e-21
1.35437e-16
8.53092e-12
1.01794e-06
1.31087e-25
4.515e-21
1.35071e-16
8.51286e-12
1.01688e-06
1.30975e-25
4.51234e-21
1.35002e-16
8.50961e-12
1.01668e-06
1.307e-25
4.50585e-21
1.34831e-16
8.50119e-12
1.01618e-06
1.30658e-25
4.50483e-21
1.34803e-16
8.49984e-12
1.0161e-06
1.30586e-25
4.50311e-21
1.34757e-16
8.49745e-12
1.01595e-06
1.30586e-25
4.50311e-21
1.34757e-16
8.49745e-12
1.01595e-06
1.30658e-25
4.50483e-21
1.34803e-16
8.49984e-12
1.0161e-06
1.307e-25
4.50585e-21
1.34831e-16
8.50119e-12
1.01618e-06
1.30975e-25
4.51234e-21
1.35002e-16
8.50961e-12
1.01668e-06
1.31087e-25
4.515e-21
1.35071e-16
8.51286e-12
1.01688e-06
1.31685e-25
4.52892e-21
1.35437e-16
8.53092e-12
1.01794e-06
1.31876e-25
4.53344e-21
1.35556e-16
8.53656e-12
1.01828e-06
1.3096e-25
4.51197e-21
1.35299e-16
8.55389e-12
1.01973e-06
1.30579e-25
4.50323e-21
1.35165e-16
8.5561e-12
1.02003e-06
9.85157e-26
3.77638e-21
1.21335e-16
8.36659e-12
1.01627e-06
9.85584e-26
3.79216e-21
1.25633e-16
8.9303e-12
1.01429e-06
1.30616e-25
4.51809e-21
1.39375e-16
9.11501e-12
1.01807e-06
1.30998e-25
4.52684e-21
1.39505e-16
9.11242e-12
1.01777e-06
1.31914e-25
4.54814e-21
1.39735e-16
9.0931e-12
1.01635e-06
1.31722e-25
4.54361e-21
1.39613e-16
9.08714e-12
1.01601e-06
1.31124e-25
4.52963e-21
1.39233e-16
9.06799e-12
1.01495e-06
1.31012e-25
4.52695e-21
1.39161e-16
9.06456e-12
1.01476e-06
1.30737e-25
4.52044e-21
1.38984e-16
9.05565e-12
1.01426e-06
1.30695e-25
4.51941e-21
1.38955e-16
9.05421e-12
1.01418e-06
1.30622e-25
4.51768e-21
1.38907e-16
9.05168e-12
1.01404e-06
1.30622e-25
4.51768e-21
1.38907e-16
9.05168e-12
1.01404e-06
1.30695e-25
4.51941e-21
1.38955e-16
9.05421e-12
1.01418e-06
1.30737e-25
4.52044e-21
1.38984e-16
9.05565e-12
1.01426e-06
1.31012e-25
4.52695e-21
1.39161e-16
9.06456e-12
1.01476e-06
1.31124e-25
4.52963e-21
1.39233e-16
9.06799e-12
1.01495e-06
1.31722e-25
4.54361e-21
1.39613e-16
9.08714e-12
1.01601e-06
1.31914e-25
4.54814e-21
1.39735e-16
9.0931e-12
1.01635e-06
1.30998e-25
4.52683e-21
1.39505e-16
9.11242e-12
1.01777e-06
1.30616e-25
4.51809e-21
1.39375e-16
9.11501e-12
1.01807e-06
9.85584e-26
3.79216e-21
1.25633e-16
8.9303e-12
1.01429e-06
9.86133e-26
3.81072e-21
1.30277e-16
9.49172e-12
1.01231e-06
1.30664e-25
4.53563e-21
1.43925e-16
9.67161e-12
1.01612e-06
1.31047e-25
4.54438e-21
1.44051e-16
9.66865e-12
1.01582e-06
1.31963e-25
4.5655e-21
1.44251e-16
9.64736e-12
1.01441e-06
1.31771e-25
4.56095e-21
1.44124e-16
9.64109e-12
1.01408e-06
1.31172e-25
4.54689e-21
1.4373e-16
9.62088e-12
1.01303e-06
1.3106e-25
4.5442e-21
1.43656e-16
9.61727e-12
1.01284e-06
1.30785e-25
4.53765e-21
1.43472e-16
9.60786e-12
1.01235e-06
1.30743e-25
4.53662e-21
1.43442e-16
9.60635e-12
1.01226e-06
1.30671e-25
4.53488e-21
1.43392e-16
9.60367e-12
1.01212e-06
1.30671e-25
4.53488e-21
1.43392e-16
9.60367e-12
1.01212e-06
1.30743e-25
4.53662e-21
1.43442e-16
9.60635e-12
1.01226e-06
1.30785e-25
4.53765e-21
1.43472e-16
9.60786e-12
1.01235e-06
1.3106e-25
4.5442e-21
1.43656e-16
9.61727e-12
1.01284e-06
1.31172e-25
4.54689e-21
1.4373e-16
9.62088e-12
1.01303e-06
1.31771e-25
4.56095e-21
1.44124e-16
9.64109e-12
1.01408e-06
1.31963e-25
4.5655e-21
1.44251e-16
9.64736e-12
1.01441e-06
1.31047e-25
4.54438e-21
1.4405e-16
9.66865e-12
1.01582e-06
1.30664e-25
4.53563e-21
1.43925e-16
9.67161e-12
1.01612e-06
9.86133e-26
3.81072e-21
1.30277e-16
9.49172e-12
1.01231e-06
0.000957435
0.000225734
9.2045e-06
7.89329e-08
1.02258e-10
2.91948e-13
2.88396e-13
2.89993e-13
2.90341e-13
2.90404e-13
2.90429e-13
2.90585e-13
2.91362e-13
2.92286e-13
2.99817e-13
3.06162e-13
3.72294e-13
4.07706e-13
1.30273e-12
1.52126e-12
0.00103534
0.000245811
1.02722e-05
9.15469e-08
1.27165e-10
3.00138e-13
2.88343e-13
2.89979e-13
2.90334e-13
2.90399e-13
2.90418e-13
2.90545e-13
2.91339e-13
2.9228e-13
2.99942e-13
3.06364e-13
3.73384e-13
4.09033e-13
1.31458e-12
1.53574e-12
0.00103563
0.000245806
1.02646e-05
9.14414e-08
1.26946e-10
3.00071e-13
2.88342e-13
2.89979e-13
2.90334e-13
2.904e-13
2.90418e-13
2.90547e-13
2.91342e-13
2.92283e-13
2.99949e-13
3.06372e-13
3.73405e-13
4.09056e-13
1.3147e-12
1.53586e-12
0.00103653
0.000245483
1.01999e-05
9.05429e-08
1.25105e-10
2.99545e-13
2.8834e-13
2.89979e-13
2.90335e-13
2.90401e-13
2.9042e-13
2.90559e-13
2.91355e-13
2.92298e-13
2.99973e-13
3.064e-13
3.73477e-13
4.09132e-13
1.31507e-12
1.53619e-12
0.00103561
0.000245214
1.01823e-05
9.03314e-08
1.24666e-10
2.99393e-13
2.8834e-13
2.89979e-13
2.90335e-13
2.90401e-13
2.9042e-13
2.90559e-13
2.91355e-13
2.92298e-13
2.99974e-13
3.06401e-13
3.73479e-13
4.09134e-13
1.31508e-12
1.5362e-12
0.00103313
0.000244366
1.01227e-05
8.96066e-08
1.23181e-10
2.98889e-13
2.8834e-13
2.89979e-13
2.90335e-13
2.90401e-13
2.90421e-13
2.9056e-13
2.91356e-13
2.92299e-13
2.99975e-13
3.06403e-13
3.73483e-13
4.09138e-13
1.3151e-12
1.53621e-12
0.00103261
0.000244214
1.01131e-05
8.94931e-08
1.22945e-10
2.98806e-13
2.8834e-13
2.89979e-13
2.90335e-13
2.90401e-13
2.90421e-13
2.9056e-13
2.91356e-13
2.92299e-13
2.99975e-13
3.06403e-13
3.73483e-13
4.09138e-13
1.3151e-12
1.53621e-12
0.00103143
0.000243823
1.00863e-05
8.91709e-08
1.22285e-10
2.98577e-13
2.88341e-13
2.89979e-13
2.90335e-13
2.90401e-13
2.90421e-13
2.9056e-13
2.91356e-13
2.92299e-13
2.99975e-13
3.06403e-13
3.73483e-13
4.09138e-13
1.3151e-12
1.53621e-12
0.00103122
0.000243762
1.00824e-05
8.91253e-08
1.2219e-10
2.98544e-13
2.88341e-13
2.89979e-13
2.90335e-13
2.90401e-13
2.90421e-13
2.9056e-13
2.91356e-13
2.92299e-13
2.99975e-13
3.06403e-13
3.73483e-13
4.09138e-13
1.3151e-12
1.53621e-12
0.0010309
0.000243653
1.0075e-05
8.9036e-08
1.22007e-10
2.9848e-13
2.88341e-13
2.89979e-13
2.90335e-13
2.90401e-13
2.90421e-13
2.9056e-13
2.91356e-13
2.92299e-13
2.99975e-13
3.06403e-13
3.73483e-13
4.09138e-13
1.3151e-12
1.53621e-12
0.0010309
0.000243653
1.0075e-05
8.9036e-08
1.22007e-10
2.9848e-13
2.88341e-13
2.89979e-13
2.90335e-13
2.90401e-13
2.90421e-13
2.9056e-13
2.91356e-13
2.92299e-13
2.99975e-13
3.06403e-13
3.73483e-13
4.09138e-13
1.3151e-12
1.53621e-12
0.00103122
0.000243762
1.00824e-05
8.91253e-08
1.2219e-10
2.98544e-13
2.88341e-13
2.89979e-13
2.90335e-13
2.90401e-13
2.90421e-13
2.9056e-13
2.91356e-13
2.92299e-13
2.99975e-13
3.06403e-13
3.73483e-13
4.09138e-13
1.3151e-12
1.53621e-12
0.00103143
0.000243823
1.00863e-05
8.91709e-08
1.22285e-10
2.98577e-13
2.88341e-13
2.89979e-13
2.90335e-13
2.90401e-13
2.90421e-13
2.9056e-13
2.91356e-13
2.92299e-13
2.99975e-13
3.06403e-13
3.73483e-13
4.09138e-13
1.3151e-12
1.53621e-12
0.00103261
0.000244214
1.01131e-05
8.94931e-08
1.22945e-10
2.98806e-13
2.8834e-13
2.89979e-13
2.90335e-13
2.90401e-13
2.90421e-13
2.9056e-13
2.91356e-13
2.92299e-13
2.99975e-13
3.06403e-13
3.73483e-13
4.09138e-13
1.3151e-12
1.53621e-12
0.00103313
0.000244366
1.01227e-05
8.96066e-08
1.23181e-10
2.98889e-13
2.8834e-13
2.89979e-13
2.90335e-13
2.90401e-13
2.90421e-13
2.9056e-13
2.91356e-13
2.92299e-13
2.99975e-13
3.06403e-13
3.73483e-13
4.09138e-13
1.3151e-12
1.53621e-12
0.00103561
0.000245214
1.01823e-05
9.03314e-08
1.24666e-10
2.99393e-13
2.8834e-13
2.89979e-13
2.90335e-13
2.90401e-13
2.9042e-13
2.90559e-13
2.91355e-13
2.92298e-13
2.99974e-13
3.06401e-13
3.73479e-13
4.09134e-13
1.31508e-12
1.5362e-12
0.00103653
0.000245483
1.01999e-05
9.05429e-08
1.25105e-10
2.99545e-13
2.8834e-13
2.89979e-13
2.90335e-13
2.90401e-13
2.9042e-13
2.90559e-13
2.91355e-13
2.92298e-13
2.99973e-13
3.064e-13
3.73477e-13
4.09132e-13
1.31507e-12
1.53619e-12
0.00103563
0.000245806
1.02646e-05
9.14415e-08
1.26946e-10
3.00071e-13
2.88342e-13
2.89979e-13
2.90334e-13
2.904e-13
2.90418e-13
2.90547e-13
2.91342e-13
2.92283e-13
2.99949e-13
3.06372e-13
3.73405e-13
4.09056e-13
1.3147e-12
1.53586e-12
0.00103534
0.000245811
1.02722e-05
9.15469e-08
1.27165e-10
3.00138e-13
2.88343e-13
2.89979e-13
2.90334e-13
2.90399e-13
2.90418e-13
2.90545e-13
2.91339e-13
2.9228e-13
2.99942e-13
3.06364e-13
3.73384e-13
4.09033e-13
1.31458e-12
1.53574e-12
0.000957435
0.000225734
9.2045e-06
7.89329e-08
1.02258e-10
2.91948e-13
2.88396e-13
2.89993e-13
2.90341e-13
2.90404e-13
2.90429e-13
2.90585e-13
2.91362e-13
2.92286e-13
2.99817e-13
3.06162e-13
3.72294e-13
4.07706e-13
1.30273e-12
1.52126e-12
0.0135807
0.00427962
0.000253579
2.86501e-06
5.10156e-09
1.253e-11
1.14658e-11
1.1537e-11
1.15526e-11
1.15555e-11
1.15566e-11
1.15629e-11
1.15944e-11
1.16316e-11
1.19341e-11
1.2187e-11
1.48225e-11
1.62191e-11
5.14541e-11
5.98737e-11
0.014391
0.00457598
0.000277499
3.2378e-06
6.0427e-09
1.29482e-11
1.14634e-11
1.15364e-11
1.15523e-11
1.15553e-11
1.15561e-11
1.15613e-11
1.15935e-11
1.16314e-11
1.19392e-11
1.21952e-11
1.48663e-11
1.62723e-11
5.19223e-11
6.04441e-11
0.0143918
0.00457509
0.000277233
3.23327e-06
6.03105e-09
1.29435e-11
1.14634e-11
1.15364e-11
1.15523e-11
1.15553e-11
1.15562e-11
1.15614e-11
1.15937e-11
1.16315e-11
1.19395e-11
1.21955e-11
1.48671e-11
1.62732e-11
5.19269e-11
6.04487e-11
0.0143967
0.00456776
0.000275351
3.19961e-06
5.94282e-09