/*--------------------------------*- C++ -*----------------------------------*\
  =========                 |
  \\      /  F ield         | OpenFOAM: The Open Source CFD Toolbox
   \\    /   O peration     | Website:  https://openfoam.org
    \\  /    A nd           | Version:  8
     \\/     M anipulation  |
\*---------------------------------------------------------------------------*/
FoamFile
{
    version     2.0;
    format      ascii;
    class       volScalarField;
    location    "4.1";
    object      p;
}
// * * * * * * * * * * * * * * * * * * * * * * * * * * * * * * * * * * * * * //

dimensions      [0 2 -2 0 0 0 0];

internalField   nonuniform List<scalar> 
180000
(
0.000901162
0.000840247
0.000878499
0.000748451
0.000817284
0.000886606
0.000825921
0.00086389
0.00073517
0.000802859
0.000885776
0.00082513
0.00086306
0.000734477
0.000802077
0.000881466
0.000820985
0.000858734
0.00073082
0.000798018
0.000880886
0.000820433
0.00085815
0.000730337
0.00079747
0.000878902
0.000818538
0.000856153
0.000728673
0.000795601
0.000878574
0.000818227
0.000855822
0.000728399
0.000795289
0.000877667
0.000817361
0.000854907
0.000727639
0.000794432
0.000877526
0.000817227
0.000854764
0.000727521
0.000794297
0.000877263
0.000816976
0.000854499
0.0007273
0.000794048
0.000877263
0.000816976
0.000854499
0.0007273
0.000794048
0.000877526
0.000817227
0.000854764
0.000727521
0.000794297
0.000877667
0.000817361
0.000854907
0.000727639
0.000794432
0.000878574
0.000818227
0.000855822
0.000728399
0.000795289
0.000878902
0.000818538
0.000856153
0.000728673
0.000795601
0.000880886
0.000820433
0.00085815
0.000730337
0.00079747
0.000881466
0.000820985
0.000858734
0.00073082
0.000798018
0.000885776
0.00082513
0.00086306
0.000734477
0.000802077
0.000886606
0.000825921
0.00086389
0.00073517
0.000802859
0.000901162
0.000840247
0.000878499
0.000748451
0.000817284
0.000735052
0.000706861
0.000725499
0.000656559
0.000695718
0.000728707
0.000699721
0.00071879
0.00064876
0.00068819
0.000728338
0.000699319
0.000718401
0.000648346
0.000687774
0.000726375
0.000697171
0.000716328
0.000646126
0.000685575
0.000726111
0.000696886
0.000716049
0.000645833
0.000685279
0.000725199
0.000695897
0.000715084
0.000644817
0.000684259
0.000725049
0.000695735
0.000714925
0.000644651
0.00068409
0.00072463
0.000695281
0.000714481
0.000644185
0.00068362
0.000724566
0.000695212
0.000714412
0.000644113
0.000683547
0.000724444
0.00069508
0.000714283
0.000643978
0.000683411
0.000724444
0.00069508
0.000714283
0.000643978
0.000683411
0.000724566
0.000695212
0.000714412
0.000644113
0.000683547
0.00072463
0.000695281
0.000714481
0.000644185
0.00068362
0.000725049
0.000695735
0.000714925
0.000644651
0.00068409
0.000725199
0.000695897
0.000715084
0.000644817
0.000684259
0.000726111
0.000696886
0.000716049
0.000645833
0.000685279
0.000726375
0.000697171
0.000716328
0.000646126
0.000685575
0.000728338
0.000699319
0.000718401
0.000648346
0.000687774
0.000728707
0.000699721
0.00071879
0.00064876
0.00068819
0.000735052
0.000706861
0.000725499
0.000656559
0.000695718
0.000527662
0.000505259
0.000520522
0.000466617
0.00049957
0.000522561
0.000499796
0.000515239
0.000460947
0.000493876
0.000522264
0.000499487
0.000514932
0.000460644
0.00049356
0.000520656
0.000497808
0.000513268
0.000458986
0.000491854
0.000520443
0.000497587
0.000513046
0.00045877
0.000491626
0.000519697
0.000496815
0.000512272
0.000458012
0.000490836
0.000519576
0.000496689
0.000512146
0.000457889
0.000490706
0.000519234
0.000496335
0.00051179
0.000457541
0.000490343
0.000519181
0.000496281
0.000511735
0.000457488
0.000490286
0.000519082
0.000496179
0.000511632
0.000457387
0.000490181
0.000519082
0.000496179
0.000511632
0.000457387
0.000490181
0.000519181
0.000496281
0.000511735
0.000457488
0.000490286
0.000519234
0.000496335
0.00051179
0.000457541
0.000490343
0.000519576
0.000496689
0.000512146
0.000457889
0.000490706
0.000519697
0.000496815
0.000512272
0.000458012
0.000490836
0.000520443
0.000497587
0.000513046
0.00045877
0.000491626
0.000520656
0.000497808
0.000513268
0.000458986
0.000491854
0.000522264
0.000499487
0.000514932
0.000460644
0.00049356
0.000522561
0.000499796
0.000515239
0.000460947
0.000493876
0.000527662
0.000505259
0.000520522
0.000466617
0.00049957
0.000493163
0.000466968
0.000484914
0.000424258
0.000463535
0.000487078
0.000460807
0.00047875
0.000418301
0.000457244
0.000486722
0.000460457
0.000478391
0.000417981
0.000456891
0.0004848
0.000458552
0.000476441
0.000416217
0.000454984
0.000484546
0.000458302
0.000476182
0.000415988
0.000454731
0.000483657
0.000457428
0.000475279
0.000415183
0.00045385
0.000483513
0.000457286
0.000475131
0.000415052
0.000453705
0.000483106
0.000456886
0.000474717
0.000414684
0.0004533
0.000483044
0.000456825
0.000474653
0.000414628
0.000453237
0.000482926
0.000456709
0.000474533
0.000414521
0.00045312
0.000482926
0.000456709
0.000474533
0.000414521
0.00045312
0.000483044
0.000456825
0.000474653
0.000414628
0.000453237
0.000483106
0.000456886
0.000474717
0.000414684
0.0004533
0.000483513
0.000457286
0.000475131
0.000415052
0.000453705
0.000483657
0.000457428
0.000475279
0.000415183
0.00045385
0.000484546
0.000458302
0.000476182
0.000415988
0.000454731
0.0004848
0.000458552
0.000476441
0.000416217
0.000454984
0.000486722
0.000460457
0.000478391
0.000417981
0.000456891
0.000487078
0.000460807
0.00047875
0.000418301
0.000457244
0.000493163
0.000466968
0.000484914
0.000424258
0.000463535
0.000516156
0.000488464
0.000507783
0.000442969
0.000487838
0.000509746
0.00048197
0.000501288
0.000436701
0.00048123
0.000509367
0.000481598
0.000500906
0.00043636
0.000480854
0.00050731
0.000479559
0.00049882
0.000434474
0.000478812
0.000507039
0.000479292
0.000498543
0.00043423
0.000478541
0.000506088
0.000478356
0.000497576
0.000433369
0.000477596
0.000505933
0.000478204
0.000497419
0.000433229
0.000477442
0.000505498
0.000477776
0.000496975
0.000432835
0.000477008
0.000505431
0.000477711
0.000496907
0.000432775
0.000476941
0.000505305
0.000477587
0.000496778
0.000432661
0.000476815
0.000505305
0.000477587
0.000496778
0.000432661
0.000476815
0.000505431
0.000477711
0.000496907
0.000432775
0.000476941
0.000505498
0.000477776
0.000496975
0.000432835
0.000477008
0.000505933
0.000478204
0.000497419
0.000433229
0.000477442
0.000506088
0.000478356
0.000497576
0.000433369
0.000477596
0.000507039
0.000479292
0.000498543
0.00043423
0.000478541
0.00050731
0.000479559
0.00049882
0.000434474
0.000478812
0.000509367
0.000481598
0.000500906
0.00043636
0.000480854
0.000509746
0.00048197
0.000501288
0.000436701
0.00048123
0.000516156
0.000488464
0.000507783
0.000442969
0.000487838
0.000528948
0.00050183
0.000521236
0.000456495
0.00050498
0.000522722
0.000495476
0.000514912
0.000450301
0.000498514
0.000522349
0.000495107
0.000514535
0.00044996
0.00049814
0.00052031
0.000493071
0.000512461
0.000448059
0.000496092
0.000520041
0.000492806
0.000512187
0.000447813
0.000495821
0.000519097
0.00049187
0.000511225
0.000446944
0.000494872
0.000518944
0.000491719
0.000511068
0.000446803
0.000494717
0.000518512
0.000491291
0.000510626
0.000446405
0.000494281
0.000518446
0.000491226
0.000510559
0.000446345
0.000494214
0.00051832
0.000491102
0.00051043
0.00044623
0.000494088
0.00051832
0.000491102
0.00051043
0.00044623
0.000494088
0.000518446
0.000491226
0.000510559
0.000446345
0.000494214
0.000518512
0.000491291
0.000510626
0.000446405
0.000494281
0.000518944
0.000491719
0.000511068
0.000446803
0.000494717
0.000519097
0.00049187
0.000511225
0.000446944
0.000494872
0.000520041
0.000492806
0.000512187
0.000447813
0.000495821
0.00052031
0.000493071
0.000512461
0.000448059
0.000496092
0.000522349
0.000495107
0.000514535
0.00044996
0.00049814
0.000522722
0.000495476
0.000514912
0.000450301
0.000498514
0.000528948
0.00050183
0.000521236
0.000456495
0.00050498
0.000528876
0.000502508
0.000521868
0.000458
0.000509767
0.000522864
0.00049636
0.000515759
0.000451987
0.000503518
0.0005225
0.000495999
0.00051539
0.000451652
0.000503151
0.000520491
0.000493989
0.000513346
0.000449768
0.000501121
0.000520227
0.000493728
0.000513077
0.000449525
0.000500853
0.000519295
0.000492803
0.000512127
0.000448662
0.000499912
0.000519145
0.000492655
0.000511973
0.000448523
0.000499758
0.000518718
0.000492231
0.000511536
0.000448128
0.000499326
0.000518653
0.000492167
0.00051147
0.000448068
0.000499259
0.000518529
0.000492045
0.000511343
0.000447954
0.000499134
0.000518529
0.000492045
0.000511343
0.000447954
0.000499134
0.000518653
0.000492167
0.00051147
0.000448068
0.000499259
0.000518718
0.000492231
0.000511536
0.000448128
0.000499326
0.000519145
0.000492655
0.000511973
0.000448523
0.000499758
0.000519295
0.000492803
0.000512127
0.000448662
0.000499912
0.000520227
0.000493728
0.000513077
0.000449525
0.000500853
0.000520491
0.000493989
0.000513346
0.000449768
0.000501121
0.0005225
0.000495999
0.00051539
0.000451652
0.000503151
0.000522864
0.00049636
0.000515759
0.000451987
0.000503518
0.000528876
0.000502508
0.000521868
0.000458
0.000509767
0.000526248
0.000500295
0.0005198
0.00045635
0.00051145
0.000520362
0.000494286
0.000513826
0.00045048
0.000505352
0.000520002
0.00049393
0.000513462
0.00045015
0.000504989
0.000518
0.000491929
0.000511426
0.000448273
0.000502961
0.000517738
0.00049167
0.000511158
0.000448032
0.000502694
0.000516808
0.000490748
0.000510211
0.000447172
0.000501754
0.000516659
0.0004906
0.000510058
0.000447034
0.000501601
0.000516233
0.000490178
0.000509623
0.00044664
0.000501168
0.000516168
0.000490115
0.000509557
0.000446581
0.000501102
0.000516045
0.000489992
0.00050943
0.000446466
0.000500976
0.000516045
0.000489992
0.00050943
0.000446466
0.000500976
0.000516168
0.000490115
0.000509557
0.000446581
0.000501102
0.000516233
0.000490178
0.000509623
0.00044664
0.000501168
0.000516659
0.0004906
0.000510058
0.000447034
0.000501601
0.000516808
0.000490748
0.000510211
0.000447172
0.000501754
0.000517738
0.00049167
0.000511158
0.000448032
0.000502694
0.000518
0.000491929
0.000511426
0.000448273
0.000502961
0.000520002
0.00049393
0.000513462
0.00045015
0.000504989
0.000520362
0.000494286
0.000513826
0.00045048
0.000505352
0.000526248
0.000500295
0.0005198
0.00045635
0.00051145
0.000525005
0.000499322
0.000519053
0.000455792
0.000513872
0.000519212
0.000493417
0.000513178
0.000450031
0.000507883
0.000518854
0.000493063
0.000512817
0.000449703
0.000507521
0.000516849
0.000491062
0.000510779
0.000447826
0.000505488
0.000516587
0.000490803
0.000510513
0.000447586
0.000505221
0.000515656
0.00048988
0.000509564
0.000446724
0.000504276
0.000515507
0.000489733
0.000509411
0.000446587
0.000504123
0.000515079
0.00048931
0.000508975
0.000446192
0.000503689
0.000515015
0.000489247
0.000508909
0.000446133
0.000503623
0.000514891
0.000489124
0.000508782
0.000446018
0.000503497
0.000514891
0.000489124
0.000508782
0.000446018
0.000503497
0.000515015
0.000489247
0.000508909
0.000446133
0.000503623
0.000515079
0.00048931
0.000508975
0.000446192
0.000503689
0.000515507
0.000489733
0.000509411
0.000446587
0.000504123
0.000515656
0.00048988
0.000509564
0.000446724
0.000504276
0.000516587
0.000490803
0.000510513
0.000447586
0.000505221
0.000516849
0.000491062
0.000510779
0.000447826
0.000505488
0.000518854
0.000493063
0.000512817
0.000449703
0.000507521
0.000519212
0.000493417
0.000513178
0.000450031
0.000507883
0.000525005
0.000499322
0.000519053
0.000455792
0.000513872
0.0005247
0.00049929
0.000519235
0.000456229
0.000516585
0.000519002
0.000493487
0.000513461
0.000450569
0.000510693
0.000518647
0.000493137
0.000513102
0.000450243
0.000510332
0.000516641
0.000491135
0.000511064
0.000448365
0.000508293
0.00051638
0.000490878
0.000510798
0.000448125
0.000508026
0.000515446
0.000489953
0.000509847
0.000447262
0.000507078
0.000515297
0.000489806
0.000509695
0.000447124
0.000506924
0.000514869
0.000489383
0.000509258
0.000446729
0.000506488
0.000514805
0.00048932
0.000509192
0.000446669
0.000506422
0.000514681
0.000489197
0.000509065
0.000446555
0.000506295
0.000514681
0.000489197
0.000509065
0.000446555
0.000506295
0.000514805
0.00048932
0.000509192
0.000446669
0.000506422
0.000514869
0.000489383
0.000509258
0.000446729
0.000506488
0.000515297
0.000489806
0.000509695
0.000447124
0.000506924
0.000515446
0.000489953
0.000509847
0.000447262
0.000507078
0.00051638
0.000490878
0.000510798
0.000448125
0.000508026
0.000516641
0.000491135
0.000511064
0.000448365
0.000508293
0.000518647
0.000493137
0.000513102
0.000450243
0.000510332
0.000519002
0.000493487
0.000513461
0.000450569
0.000510693
0.0005247
0.00049929
0.000519235
0.000456229
0.000516585
0.00052449
0.000499372
0.000519505
0.000456867
0.000518446
0.000518893
0.000493676
0.000513837
0.000451309
0.000512637
0.000518541
0.000493328
0.00051348
0.000450986
0.000512278
0.000516536
0.000491329
0.000511445
0.000449107
0.000510234
0.000516276
0.000491072
0.00051118
0.000448868
0.000509967
0.000515342
0.000490147
0.000510229
0.000448003
0.000509014
0.000515193
0.000490001
0.000510077
0.000447866
0.000508861
0.000514765
0.000489577
0.00050964
0.000447469
0.000508423
0.000514701
0.000489514
0.000509574
0.00044741
0.000508357
0.000514576
0.000489391
0.000509447
0.000447295
0.000508229
0.000514576
0.000489391
0.000509447
0.000447295
0.000508229
0.000514701
0.000489514
0.000509574
0.00044741
0.000508357
0.000514765
0.000489577
0.00050964
0.000447469
0.000508423
0.000515193
0.000490001
0.000510077
0.000447866
0.000508861
0.000515342
0.000490147
0.000510229
0.000448003
0.000509014
0.000516276
0.000491072
0.00051118
0.000448868
0.000509967
0.000516536
0.000491329
0.000511445
0.000449107
0.000510234
0.000518541
0.000493328
0.00051348
0.000450986
0.000512278
0.000518893
0.000493676
0.000513837
0.000451309
0.000512637
0.00052449
0.000499372
0.000519505
0.000456867
0.000518446
0.000524167
0.000499336
0.000519645
0.000457401
0.000517243
0.00051867
0.000493746
0.000514081
0.000451946
0.000511534
0.00051832
0.000493401
0.000513728
0.000451625
0.000511178
0.000516318
0.000491405
0.000511696
0.000449747
0.000509137
0.000516059
0.000491149
0.000511432
0.000449508
0.000508871
0.000515124
0.000490225
0.000510481
0.000448642
0.000507919
0.000514976
0.000490078
0.000510329
0.000448505
0.000507766
0.000514547
0.000489655
0.000509892
0.000448108
0.000507328
0.000514483
0.000489592
0.000509826
0.000448049
0.000507261
0.000514359
0.000489469
0.000509699
0.000447934
0.000507134
0.000514359
0.000489469
0.000509699
0.000447934
0.000507134
0.000514483
0.000489592
0.000509826
0.000448049
0.000507261
0.000514547
0.000489655
0.000509892
0.000448108
0.000507328
0.000514976
0.000490078
0.000510329
0.000448505
0.000507766
0.000515124
0.000490225
0.000510481
0.000448642
0.000507919
0.000516059
0.000491149
0.000511432
0.000449508
0.000508871
0.000516318
0.000491405
0.000511696
0.000449747
0.000509137
0.00051832
0.000493401
0.000513728
0.000451625
0.000511178
0.00051867
0.000493746
0.000514081
0.000451946
0.000511534
0.000524167
0.000499336
0.000519645
0.000457401
0.000517243
0.000523804
0.000499249
0.000519727
0.000457807
0.000515168
0.000518404
0.000493761
0.000514265
0.000452451
0.000509562
0.000518058
0.000493419
0.000513915
0.000452132
0.000509209
0.000516058
0.000491426
0.000511885
0.000450256
0.000507175
0.000515799
0.000491172
0.000511622
0.000450018
0.000506911
0.000514865
0.000490247
0.000510671
0.000449151
0.000505959
0.000514717
0.000490101
0.00051052
0.000449014
0.000505807
0.000514287
0.000489677
0.000510082
0.000448617
0.000505369
0.000514224
0.000489614
0.000510017
0.000448558
0.000505303
0.000514099
0.000489492
0.00050989
0.000448442
0.000505176
0.000514099
0.000489492
0.00050989
0.000448442
0.000505176
0.000514224
0.000489614
0.000510017
0.000448558
0.000505303
0.000514287
0.000489677
0.000510082
0.000448617
0.000505369
0.000514717
0.000490101
0.00051052
0.000449014
0.000505807
0.000514865
0.000490247
0.000510671
0.000449151
0.000505959
0.000515799
0.000491172
0.000511622
0.000450018
0.000506911
0.000516058
0.000491426
0.000511885
0.000450256
0.000507175
0.000518058
0.000493419
0.000513915
0.000452132
0.000509209
0.000518404
0.000493761
0.000514265
0.000452451
0.000509562
0.000523804
0.000499249
0.000519727
0.000457807
0.000515168
0.000523465
0.000499173
0.000519815
0.000458129
0.000513354
0.00051816
0.000493785
0.000514451
0.000452871
0.000507847
0.000517816
0.000493446
0.000514104
0.000452555
0.000507498
0.000515818
0.000491456
0.000512078
0.000450681
0.00050547
0.000515561
0.000491203
0.000511816
0.000450444
0.000505207
0.000514626
0.000490278
0.000510865
0.000449576
0.000504256
0.000514478
0.000490133
0.000510714
0.00044944
0.000504105
0.000514049
0.000489708
0.000510276
0.000449042
0.000503667
0.000513985
0.000489646
0.000510211
0.000448983
0.000503602
0.000513861
0.000489523
0.000510084
0.000448867
0.000503474
0.000513861
0.000489523
0.000510084
0.000448867
0.000503474
0.000513985
0.000489646
0.000510211
0.000448983
0.000503602
0.000514049
0.000489708
0.000510276
0.000449042
0.000503667
0.000514478
0.000490133
0.000510714
0.00044944
0.000504105
0.000514626
0.000490278
0.000510865
0.000449576
0.000504256
0.000515561
0.000491203
0.000511816
0.000450444
0.000505207
0.000515818
0.000491456
0.000512078
0.000450681
0.00050547
0.000517816
0.000493446
0.000514104
0.000452555
0.000507498
0.00051816
0.000493785
0.000514451
0.000452871
0.000507847
0.000523465
0.000499173
0.000519815
0.000458129
0.000513354
0.000523157
0.000499118
0.000519918
0.000458391
0.000511802
0.000517944
0.000493828
0.000514652
0.00045323
0.000506392
0.000517602
0.000493491
0.000514308
0.000452916
0.000506045
0.000515608
0.000491505
0.000512285
0.000451045
0.000504023
0.000515352
0.000491253
0.000512024
0.000450808
0.000503761
0.000514416
0.000490328
0.000511073
0.00044994
0.000502812
0.000514269
0.000490183
0.000510923
0.000449804
0.000502661
0.000513839
0.000489759
0.000510484
0.000449406
0.000502223
0.000513776
0.000489697
0.00051042
0.000449347
0.000502158
0.000513651
0.000489574
0.000510292
0.000449231
0.000502031
0.000513651
0.000489574
0.000510292
0.000449231
0.000502031
0.000513776
0.000489697
0.00051042
0.000449347
0.000502158
0.000513839
0.000489759
0.000510484
0.000449406
0.000502223
0.000514269
0.000490183
0.000510923
0.000449804
0.000502661
0.000514416
0.000490328
0.000511073
0.00044994
0.000502812
0.000515352
0.000491253
0.000512024
0.000450808
0.000503761
0.000515608
0.000491505
0.000512285
0.000451045
0.000504023
0.000517602
0.000493491
0.000514308
0.000452916
0.000506045
0.000517944
0.000493828
0.000514652
0.00045323
0.000506392
0.000523157
0.000499118
0.000519918
0.000458391
0.000511802
0.000522872
0.000499078
0.000520032
0.000458594
0.000510313
0.000517748
0.000493882
0.000514861
0.000453527
0.000504997
0.000517409
0.000493548
0.000514519
0.000453216
0.000504654
0.000515419
0.000491567
0.0005125
0.000451348
0.000502637
0.000515163
0.000491315
0.00051224
0.000451112
0.000502377
0.000514227
0.00049039
0.000511289
0.000450244
0.000501428
0.000514081
0.000490246
0.000511139
0.000450108
0.000501278
0.000513651
0.000489822
0.000510701
0.000449709
0.000500841
0.000513588
0.00048976
0.000510636
0.000449651
0.000500776
0.000513463
0.000489637
0.000510509
0.000449535
0.000500649
0.000513463
0.000489637
0.000510509
0.000449535
0.000500649
0.000513588
0.00048976
0.000510636
0.000449651
0.000500776
0.000513651
0.000489822
0.000510701
0.000449709
0.000500841
0.000514081
0.000490246
0.000511139
0.000450108
0.000501278
0.000514227
0.00049039
0.000511289
0.000450244
0.000501428
0.000515163
0.000491315
0.00051224
0.000451112
0.000502377
0.000515419
0.000491567
0.0005125
0.000451348
0.000502637
0.000517409
0.000493548
0.000514519
0.000453216
0.000504654
0.000517748
0.000493882
0.000514861
0.000453527
0.000504997
0.000522872
0.000499078
0.000520032
0.000458594
0.000510313
0.000522604
0.000499046
0.000520152
0.000458734
0.000508818
0.000517569
0.000493944
0.000515073
0.000453761
0.000503593
0.000517232
0.000493613
0.000514734
0.000453452
0.000503253
0.000515245
0.000491635
0.00051272
0.000451587
0.000501244
0.000514991
0.000491385
0.000512461
0.000451353
0.000500985
0.000514055
0.00049046
0.00051151
0.000450484
0.000500037
0.000513909
0.000490317
0.00051136
0.000450349
0.000499887
0.000513478
0.000489892
0.000510922
0.00044995
0.00049945
0.000513415
0.00048983
0.000510858
0.000449892
0.000499385
0.00051329
0.000489707
0.00051073
0.000449776
0.000499258
0.00051329
0.000489707
0.00051073
0.000449776
0.000499258
0.000513415
0.00048983
0.000510858
0.000449892
0.000499385
0.000513478
0.000489892
0.000510922
0.00044995
0.00049945
0.000513909
0.000490317
0.00051136
0.000450349
0.000499887
0.000514055
0.00049046
0.00051151
0.000450484
0.000500037
0.000514991
0.000491385
0.000512461
0.000451353
0.000500985
0.000515245
0.000491635
0.00051272
0.000451587
0.000501244
0.000517232
0.000493613
0.000514734
0.000453452
0.000503253
0.000517569
0.000493944
0.000515073
0.000453761
0.000503593
0.000522604
0.000499046
0.000520152
0.000458734
0.000508818
0.000522353
0.000499024
0.00052028
0.000458811
0.000507329
0.000517404
0.000494013
0.000515292
0.00045393
0.000502193
0.00051707
0.000493684
0.000514955
0.000453623
0.000501856
0.000515087
0.000491711
0.000512946
0.000451763
0.000499853
0.000514834
0.000491462
0.000512688
0.00045153
0.000499595
0.000513898
0.000490537
0.000511736
0.000450661
0.000498648
0.000513752
0.000490394
0.000511588
0.000450526
0.000498499
0.000513322
0.00048997
0.000511149
0.000450127
0.000498062
0.000513259
0.000489908
0.000511085
0.000450069
0.000497998
0.000513134
0.000489785
0.000510957
0.000449953
0.000497871
0.000513134
0.000489785
0.000510957
0.000449953
0.000497871
0.000513259
0.000489908
0.000511085
0.000450069
0.000497998
0.000513322
0.00048997
0.000511149
0.000450127
0.000498062
0.000513752
0.000490394
0.000511588
0.000450526
0.000498499
0.000513898
0.000490537
0.000511736
0.000450661
0.000498648
0.000514834
0.000491462
0.000512688
0.00045153
0.000499595
0.000515087
0.000491711
0.000512946
0.000451763
0.000499853
0.00051707
0.000493684
0.000514955
0.000453623
0.000501856
0.000517404
0.000494013
0.000515292
0.00045393
0.000502193
0.000522353
0.000499024
0.00052028
0.000458811
0.000507329
0.00052212
0.000499012
0.000520417
0.000458827
0.000505858
0.000517256
0.00049409
0.000515518
0.000454037
0.000500808
0.000516924
0.000493763
0.000515184
0.000453732
0.000500474
0.000514945
0.000491796
0.000513179
0.000451877
0.000498479
0.000514693
0.000491547
0.000512922
0.000451644
0.000498222
0.000513757
0.000490623
0.000511971
0.000450776
0.000497276
0.000513611
0.00049048
0.000511823
0.000450642
0.000497128
0.000513181
0.000490055
0.000511384
0.000450243
0.000496691
0.000513118
0.000489994
0.00051132
0.000450185
0.000496627
0.000512993
0.000489871
0.000511192
0.000450069
0.0004965
0.000512993
0.000489871
0.000511192
0.000450069
0.0004965
0.000513118
0.000489994
0.00051132
0.000450185
0.000496627
0.000513181
0.000490055
0.000511384
0.000450243
0.000496691
0.000513611
0.00049048
0.000511823
0.000450642
0.000497128
0.000513757
0.000490623
0.000511971
0.000450776
0.000497276
0.000514693
0.000491547
0.000512922
0.000451644
0.000498222
0.000514945
0.000491796
0.000513179
0.000451877
0.000498479
0.000516924
0.000493763
0.000515184
0.000453732
0.000500474
0.000517256
0.00049409
0.000515518
0.000454037
0.000500808
0.00052212
0.000499012
0.000520417
0.000458827
0.000505858
0.000521904
0.000499011
0.000520565
0.000458783
0.00050434
0.000517122
0.000494175
0.000515753
0.000454081
0.000499375
0.000516793
0.000493851
0.000515421
0.000453779
0.000499044
0.000514819
0.000491888
0.000513421
0.000451929
0.000497057
0.000514567
0.000491641
0.000513166
0.000451697
0.000496802
0.000513631
0.000490716
0.000512214
0.00045083
0.000495857
0.000513487
0.000490574
0.000512067
0.000450696
0.000495709
0.000513056
0.00049015
0.000511628
0.000450297
0.000495273
0.000512994
0.000490088
0.000511564
0.000450239
0.000495209
0.000512868
0.000489965
0.000511437
0.000450124
0.000495082
0.000512868
0.000489965
0.000511437
0.000450124
0.000495082
0.000512994
0.000490088
0.000511564
0.000450239
0.000495209
0.000513056
0.00049015
0.000511628
0.000450297
0.000495273
0.000513487
0.000490574
0.000512067
0.000450696
0.000495709
0.000513631
0.000490716
0.000512214
0.00045083
0.000495857
0.000514567
0.000491641
0.000513166
0.000451697
0.000496802
0.000514819
0.000491888
0.000513421
0.000451929
0.000497057
0.000516793
0.000493851
0.000515421
0.000453779
0.000499044
0.000517122
0.000494175
0.000515753
0.000454081
0.000499375
0.000521904
0.000499011
0.000520565
0.000458783
0.00050434
-1.62415e-05
1.57759e-05
2.8149e-06
6.9664e-07
2.50911e-07
1.80707e-07
1.65294e-07
1.62495e-07
1.61806e-07
1.61662e-07
1.61615e-07
1.61593e-07
1.61495e-07
1.61386e-07
1.60519e-07
1.59851e-07
1.53415e-07
1.50644e-07
1.11916e-07
1.07812e-07
-1.63099e-05
1.57362e-05
2.82923e-06
7.01609e-07
2.52132e-07
1.81008e-07
1.65347e-07
1.62493e-07
1.6179e-07
1.61642e-07
1.61593e-07
1.61571e-07
1.61471e-07
1.61359e-07
1.60478e-07
1.59803e-07
1.53295e-07
1.50518e-07
1.11616e-07
1.076e-07
-1.63034e-05
1.57259e-05
2.82601e-06
7.01168e-07
2.52044e-07
1.80997e-07
1.65344e-07
1.62493e-07
1.61789e-07
1.61642e-07
1.61593e-07
1.61571e-07
1.61471e-07
1.61359e-07
1.60477e-07
1.59802e-07
1.53293e-07
1.50516e-07
1.11613e-07
1.07598e-07
-1.62736e-05
1.56733e-05
2.8097e-06
6.98987e-07
2.5162e-07
1.80941e-07
1.65332e-07
1.62491e-07
1.61788e-07
1.6164e-07
1.61592e-07
1.61569e-07
1.61469e-07
1.61357e-07
1.60475e-07
1.59799e-07
1.53286e-07
1.50509e-07
1.11601e-07
1.07592e-07
-1.62682e-05
1.56652e-05
2.80685e-06
6.98541e-07
2.51519e-07
1.80924e-07
1.65328e-07
1.6249e-07
1.61788e-07
1.6164e-07
1.61592e-07
1.61569e-07
1.61469e-07
1.61357e-07
1.60475e-07
1.59799e-07
1.53286e-07
1.50509e-07
1.11601e-07
1.07591e-07
-1.62513e-05
1.56397e-05
2.79807e-06
6.97227e-07
2.51229e-07
1.80878e-07
1.65317e-07
1.62488e-07
1.61787e-07
1.6164e-07
1.61592e-07
1.61569e-07
1.61469e-07
1.61357e-07
1.60474e-07
1.59798e-07
1.53286e-07
1.50509e-07
1.11601e-07
1.07591e-07
-1.62482e-05
1.56351e-05
2.79645e-06
6.96969e-07
2.5117e-07
1.80867e-07
1.65314e-07
1.62487e-07
1.61787e-07
1.6164e-07
1.61592e-07
1.61569e-07
1.61469e-07
1.61357e-07
1.60474e-07
1.59798e-07
1.53286e-07
1.50509e-07
1.11601e-07
1.07591e-07
-1.62403e-05
1.56235e-05
2.79241e-06
6.96359e-07
2.51033e-07
1.80845e-07
1.65309e-07
1.62486e-07
1.61787e-07
1.6164e-07
1.61591e-07
1.61569e-07
1.61469e-07
1.61357e-07
1.60474e-07
1.59798e-07
1.53286e-07
1.50509e-07
1.11601e-07
1.07591e-07
-1.6239e-05
1.56215e-05
2.79172e-06
6.96248e-07
2.51007e-07
1.8084e-07
1.65308e-07
1.62486e-07
1.61787e-07
1.6164e-07
1.61591e-07
1.61569e-07
1.61469e-07
1.61357e-07
1.60474e-07
1.59798e-07
1.53286e-07
1.50509e-07
1.11601e-07
1.07591e-07
-1.62367e-05
1.56181e-05
2.79055e-06
6.96072e-07
2.50968e-07
1.80834e-07
1.65306e-07
1.62486e-07
1.61787e-07
1.6164e-07
1.61591e-07
1.61569e-07
1.61469e-07
1.61357e-07
1.60474e-07
1.59798e-07
1.53286e-07
1.50509e-07
1.11601e-07
1.07591e-07
-1.62367e-05
1.56181e-05
2.79055e-06
6.96072e-07
2.50968e-07
1.80834e-07
1.65306e-07
1.62486e-07
1.61787e-07
1.6164e-07
1.61591e-07
1.61569e-07
1.61469e-07
1.61357e-07
1.60474e-07
1.59798e-07
1.53286e-07
1.50509e-07
1.11601e-07
1.07591e-07
-1.6239e-05
1.56215e-05
2.79172e-06
6.96248e-07
2.51007e-07
1.8084e-07
1.65308e-07
1.62486e-07
1.61787e-07
1.6164e-07
1.61591e-07
1.61569e-07
1.61469e-07
1.61357e-07
1.60474e-07
1.59798e-07
1.53286e-07
1.50509e-07
1.11601e-07
1.07591e-07
-1.62403e-05
1.56235e-05
2.79241e-06
6.96359e-07
2.51033e-07
1.80845e-07
1.65309e-07
1.62486e-07
1.61787e-07
1.6164e-07
1.61591e-07
1.61569e-07
1.61469e-07
1.61357e-07
1.60474e-07
1.59798e-07
1.53286e-07
1.50509e-07
1.11601e-07
1.07591e-07
-1.62482e-05
1.56351e-05
2.79645e-06
6.96969e-07
2.5117e-07
1.80867e-07
1.65314e-07
1.62487e-07
1.61787e-07
1.6164e-07
1.61592e-07
1.61569e-07
1.61469e-07
1.61357e-07
1.60474e-07
1.59798e-07
1.53286e-07
1.50509e-07
1.11601e-07
1.07591e-07
-1.62513e-05
1.56397e-05
2.79807e-06
6.97227e-07
2.51229e-07
1.80878e-07
1.65317e-07
1.62488e-07
1.61787e-07
1.6164e-07
1.61592e-07
1.61569e-07
1.61469e-07
1.61357e-07
1.60474e-07
1.59798e-07
1.53286e-07
1.50509e-07
1.11601e-07
1.07591e-07
-1.62682e-05
1.56652e-05
2.80685e-06
6.98541e-07
2.51519e-07
1.80924e-07
1.65328e-07
1.6249e-07
1.61788e-07
1.6164e-07
1.61592e-07
1.61569e-07
1.61469e-07
1.61357e-07
1.60475e-07
1.59799e-07
1.53286e-07
1.50509e-07
1.11601e-07
1.07591e-07
-1.62736e-05
1.56733e-05
2.8097e-06
6.98987e-07
2.5162e-07
1.80941e-07
1.65332e-07
1.62491e-07
1.61788e-07
1.6164e-07
1.61592e-07
1.61569e-07
1.61469e-07
1.61357e-07
1.60475e-07
1.59799e-07
1.53286e-07
1.50509e-07
1.11601e-07
1.07592e-07
-1.63034e-05
1.57259e-05
2.82601e-06
7.01168e-07
2.52044e-07
1.80997e-07
1.65344e-07
1.62493e-07
1.61789e-07
1.61642e-07
1.61593e-07
1.61571e-07
1.61471e-07
1.61359e-07
1.60477e-07
1.59802e-07
1.53293e-07
1.50516e-07
1.11613e-07
1.07598e-07
-1.63099e-05
1.57362e-05
2.82923e-06
7.01609e-07
2.52132e-07
1.81008e-07
1.65347e-07
1.62493e-07
1.6179e-07
1.61642e-07
1.61593e-07
1.61571e-07
1.61471e-07
1.61359e-07
1.60478e-07
1.59803e-07
1.53295e-07
1.50518e-07
1.11616e-07
1.076e-07
-1.62415e-05
1.57759e-05
2.8149e-06
6.9664e-07
2.50911e-07
1.80707e-07
1.65294e-07
1.62495e-07
1.61806e-07
1.61662e-07
1.61615e-07
1.61593e-07
1.61495e-07
1.61386e-07
1.60519e-07
1.59851e-07
1.53415e-07
1.50644e-07
1.11916e-07
1.07812e-07
-1.5857e-05
1.59463e-05
2.84027e-06
7.02056e-07
2.51857e-07
1.80928e-07
1.6532e-07
1.62589e-07
1.61897e-07
1.61751e-07
1.61703e-07
1.61681e-07
1.61582e-07
1.6147e-07
1.60564e-07
1.59833e-07
1.53333e-07
1.50537e-07
1.11321e-07
1.07188e-07
-1.59203e-05
1.59064e-05
2.85476e-06
7.07081e-07
2.53093e-07
1.81231e-07
1.65373e-07
1.62587e-07
1.61881e-07
1.61731e-07
1.61681e-07
1.61659e-07
1.61557e-07
1.61444e-07
1.60522e-07
1.59784e-07
1.53212e-07
1.50409e-07
1.11017e-07
1.06972e-07
-1.59137e-05
1.5896e-05
2.85151e-06
7.06636e-07
2.53005e-07
1.8122e-07
1.65371e-07
1.62587e-07
1.6188e-07
1.61731e-07
1.61681e-07
1.61658e-07
1.61557e-07
1.61444e-07
1.60521e-07
1.59783e-07
1.5321e-07
1.50407e-07
1.11014e-07
1.0697e-07
-1.5883e-05
1.58429e-05
2.83505e-06