/*--------------------------------*- C++ -*----------------------------------*\
  =========                 |
  \\      /  F ield         | OpenFOAM: The Open Source CFD Toolbox
   \\    /   O peration     | Website:  https://openfoam.org
    \\  /    A nd           | Version:  8
     \\/     M anipulation  |
\*---------------------------------------------------------------------------*/
FoamFile
{
    version     2.0;
    format      ascii;
    class       volScalarField;
    location    "4.9";
    object      p;
}
// * * * * * * * * * * * * * * * * * * * * * * * * * * * * * * * * * * * * * //

dimensions      [0 2 -2 0 0 0 0];

internalField   nonuniform List<scalar> 
180000
(
0.000905247
0.000844136
0.0008826
0.000751853
0.000821122
0.000890654
0.000829777
0.000867956
0.000738546
0.000806663
0.000889781
0.000828944
0.000867083
0.000737817
0.000805841
0.000885405
0.000824737
0.00086269
0.000734108
0.000801721
0.000884776
0.000824139
0.000862058
0.000733584
0.000801127
0.000882728
0.000822183
0.000859997
0.000731868
0.000799198
0.000882366
0.000821839
0.000859631
0.000731566
0.000798855
0.000881416
0.000820933
0.000858674
0.000730771
0.000797958
0.000881259
0.000820784
0.000858515
0.00073064
0.000797808
0.000880982
0.00082052
0.000858235
0.000730407
0.000797546
0.000880982
0.00082052
0.000858235
0.000730407
0.000797546
0.000881259
0.000820784
0.000858515
0.00073064
0.000797808
0.000881416
0.000820933
0.000858674
0.000730771
0.000797958
0.000882366
0.000821839
0.000859631
0.000731566
0.000798855
0.000882728
0.000822183
0.000859997
0.000731868
0.000799198
0.000884776
0.000824139
0.000862058
0.000733584
0.000801127
0.000885405
0.000824737
0.00086269
0.000734108
0.000801721
0.000889781
0.000828944
0.000867083
0.000737817
0.000805841
0.000890654
0.000829777
0.000867956
0.000738546
0.000806663
0.000905247
0.000844136
0.0008826
0.000751853
0.000821122
0.000736825
0.000708798
0.000727377
0.000658566
0.000697722
0.000730527
0.000701697
0.000720714
0.000650795
0.000690231
0.000730142
0.000701277
0.000720308
0.000650362
0.000689797
0.000728168
0.000699114
0.000718223
0.000648121
0.00068758
0.000727884
0.000698807
0.000717922
0.000647805
0.000687261
0.000726952
0.000697794
0.000716935
0.000646763
0.000686216
0.000726787
0.000697616
0.000716761
0.00064658
0.000686031
0.000726353
0.000697145
0.0007163
0.000646096
0.000685543
0.000726281
0.000697068
0.000716224
0.000646016
0.000685462
0.000726154
0.00069693
0.000716089
0.000645875
0.000685319
0.000726154
0.00069693
0.000716089
0.000645875
0.000685319
0.000726281
0.000697068
0.000716224
0.000646016
0.000685462
0.000726353
0.000697145
0.0007163
0.000646096
0.000685543
0.000726787
0.000697616
0.000716761
0.00064658
0.000686031
0.000726952
0.000697794
0.000716935
0.000646763
0.000686216
0.000727884
0.000698807
0.000717922
0.000647805
0.000687261
0.000728168
0.000699114
0.000718223
0.000648121
0.00068758
0.000730142
0.000701277
0.000720308
0.000650362
0.000689797
0.000730527
0.000701697
0.000720714
0.000650795
0.000690231
0.000736825
0.000708798
0.000727377
0.000658566
0.000697722
0.000529139
0.000506793
0.000522054
0.000468127
0.000501141
0.000524058
0.000501345
0.00051679
0.000462468
0.000495463
0.000523746
0.000501021
0.000516469
0.00046215
0.000495132
0.000522124
0.000499326
0.000514788
0.000460475
0.000493408
0.000521893
0.000499087
0.000514549
0.000460241
0.000493163
0.000521129
0.000498294
0.000513755
0.000459462
0.000492352
0.000520995
0.000498156
0.000513616
0.000459327
0.000492208
0.000520639
0.000497788
0.000513246
0.000458965
0.00049183
0.000520581
0.000497728
0.000513186
0.000458906
0.000491768
0.000520477
0.000497621
0.000513077
0.0004588
0.000491657
0.000520477
0.000497621
0.000513077
0.0004588
0.000491657
0.000520581
0.000497728
0.000513186
0.000458906
0.000491768
0.000520639
0.000497788
0.000513246
0.000458965
0.00049183
0.000520995
0.000498156
0.000513616
0.000459327
0.000492208
0.000521129
0.000498294
0.000513755
0.000459462
0.000492352
0.000521893
0.000499087
0.000514549
0.000460241
0.000493163
0.000522124
0.000499326
0.000514788
0.000460475
0.000493408
0.000523746
0.000501021
0.000516469
0.00046215
0.000495132
0.000524058
0.000501345
0.00051679
0.000462468
0.000495463
0.000529139
0.000506793
0.000522054
0.000468127
0.000501141
0.000494963
0.000468737
0.000486741
0.000425883
0.000465318
0.000488876
0.000462572
0.000480575
0.000419923
0.000459024
0.000488502
0.000462205
0.000480197
0.000419587
0.000458653
0.000486555
0.000460275
0.000478222
0.000417801
0.000456722
0.000486279
0.000460004
0.000477942
0.000417553
0.000456447
0.000485365
0.000459104
0.000477012
0.000416724
0.00045554
0.000485205
0.000458948
0.000476849
0.00041658
0.000455381
0.00048478
0.00045853
0.000476417
0.000416196
0.000454958
0.000484711
0.000458462
0.000476346
0.000416133
0.000454888
0.000484587
0.00045834
0.000476219
0.00041602
0.000454765
0.000484587
0.00045834
0.000476219
0.00041602
0.000454765
0.000484711
0.000458462
0.000476346
0.000416133
0.000454888
0.00048478
0.00045853
0.000476417
0.000416196
0.000454958
0.000485205
0.000458948
0.000476849
0.00041658
0.000455381
0.000485365
0.000459104
0.000477012
0.000416724
0.00045554
0.000486279
0.000460004
0.000477942
0.000417553
0.000456447
0.000486555
0.000460275
0.000478222
0.000417801
0.000456722
0.000488502
0.000462205
0.000480197
0.000419587
0.000458653
0.000488876
0.000462572
0.000480575
0.000419923
0.000459024
0.000494963
0.000468737
0.000486741
0.000425883
0.000465318
0.000518082
0.000490357
0.000509738
0.000444708
0.000489748
0.00051167
0.00048386
0.000503241
0.000438436
0.000483136
0.000511271
0.000483468
0.000502839
0.000438077
0.000482741
0.000509188
0.000481403
0.000500726
0.000436168
0.000480673
0.000508894
0.000481114
0.000500427
0.000435903
0.00048038
0.000507915
0.00048015
0.000499431
0.000435017
0.000479407
0.000507745
0.000479983
0.000499257
0.000434863
0.000479237
0.00050729
0.000479536
0.000498794
0.000434452
0.000478784
0.000507216
0.000479464
0.000498719
0.000434385
0.000478709
0.000507083
0.000479333
0.000498583
0.000434265
0.000478577
0.000507083
0.000479333
0.000498583
0.000434265
0.000478577
0.000507216
0.000479464
0.000498719
0.000434385
0.000478709
0.00050729
0.000479536
0.000498794
0.000434452
0.000478784
0.000507745
0.000479983
0.000499257
0.000434863
0.000479237
0.000507915
0.00048015
0.000499431
0.000435017
0.000479407
0.000508894
0.000481114
0.000500427
0.000435903
0.00048038
0.000509188
0.000481403
0.000500726
0.000436168
0.000480673
0.000511271
0.000483468
0.000502839
0.000438077
0.000482741
0.00051167
0.00048386
0.000503241
0.000438436
0.000483136
0.000518082
0.000490357
0.000509738
0.000444708
0.000489748
0.000530855
0.000503717
0.000523176
0.000458247
0.000506891
0.000524629
0.000497363
0.000516853
0.000452052
0.000500426
0.000524238
0.000496975
0.000516456
0.000451693
0.000500033
0.000522173
0.000494914
0.000514357
0.000449768
0.000497959
0.000521882
0.000494626
0.000514061
0.000449502
0.000497666
0.000520911
0.000493663
0.00051307
0.000448607
0.00049669
0.000520742
0.000493497
0.000512898
0.000448452
0.000496519
0.000520291
0.00049305
0.000512437
0.000448037
0.000496064
0.000520218
0.000492977
0.000512362
0.00044797
0.00049599
0.000520086
0.000492847
0.000512227
0.000447848
0.000495857
0.000520086
0.000492847
0.000512227
0.000447848
0.000495857
0.000520218
0.000492977
0.000512362
0.00044797
0.00049599
0.000520291
0.00049305
0.000512437
0.000448037
0.000496064
0.000520742
0.000493497
0.000512898
0.000448452
0.000496519
0.000520911
0.000493663
0.00051307
0.000448607
0.00049669
0.000521882
0.000494626
0.000514061
0.000449502
0.000497666
0.000522173
0.000494914
0.000514357
0.000449768
0.000497959
0.000524238
0.000496975
0.000516456
0.000451693
0.000500033
0.000524629
0.000497363
0.000516853
0.000452052
0.000500426
0.000530855
0.000503717
0.000523176
0.000458247
0.000506891
0.000530755
0.000504371
0.000523781
0.000459737
0.000511661
0.000524744
0.000498224
0.000517673
0.000453723
0.000505414
0.000524362
0.000497844
0.000517285
0.000453371
0.000505028
0.000522328
0.00049581
0.000515217
0.000451463
0.000502973
0.000522042
0.000495527
0.000514925
0.0004512
0.000502683
0.000521084
0.000494575
0.000513948
0.000450312
0.000501715
0.000520918
0.000494411
0.000513778
0.000450159
0.000501546
0.000520473
0.00049397
0.000513323
0.000449747
0.000501094
0.000520401
0.000493898
0.000513249
0.000449681
0.000501021
0.000520271
0.000493769
0.000513116
0.00044956
0.000500889
0.000520271
0.000493769
0.000513116
0.00044956
0.000500889
0.000520401
0.000493898
0.000513249
0.000449681
0.000501021
0.000520473
0.00049397
0.000513323
0.000449747
0.000501094
0.000520918
0.000494411
0.000513778
0.000450159
0.000501546
0.000521084
0.000494575
0.000513948
0.000450312
0.000501715
0.000522042
0.000495527
0.000514925
0.0004512
0.000502683
0.000522328
0.00049581
0.000515217
0.000451463
0.000502973
0.000524362
0.000497844
0.000517285
0.000453371
0.000505028
0.000524744
0.000498224
0.000517673
0.000453723
0.000505414
0.000530755
0.000504371
0.000523781
0.000459737
0.000511661
0.000528123
0.000502152
0.000521708
0.000458082
0.000513344
0.000522238
0.000496143
0.000515735
0.000452211
0.000507247
0.00052186
0.000495769
0.000515351
0.000451863
0.000506864
0.000519833
0.000493743
0.000513291
0.000449963
0.000504812
0.000519549
0.000493462
0.000513001
0.000449702
0.000504524
0.000518593
0.000492513
0.000512027
0.000448817
0.000503556
0.000518428
0.000492351
0.000511858
0.000448665
0.000503387
0.000517983
0.00049191
0.000511404
0.000448254
0.000502936
0.000517912
0.00049184
0.000511331
0.000448188
0.000502862
0.000517782
0.000491711
0.000511198
0.000448068
0.00050273
0.000517782
0.000491711
0.000511198
0.000448068
0.00050273
0.000517912
0.00049184
0.000511331
0.000448188
0.000502862
0.000517983
0.00049191
0.000511404
0.000448254
0.000502936
0.000518428
0.000492351
0.000511858
0.000448665
0.000503387
0.000518593
0.000492513
0.000512027
0.000448817
0.000503556
0.000519549
0.000493462
0.000513001
0.000449702
0.000504524
0.000519833
0.000493743
0.000513291
0.000449963
0.000504812
0.00052186
0.000495769
0.000515351
0.000451863
0.000506864
0.000522238
0.000496143
0.000515735
0.000452211
0.000507247
0.000528123
0.000502152
0.000521708
0.000458082
0.000513344
0.000526885
0.000501182
0.000520965
0.000457527
0.000515774
0.000521093
0.000495277
0.000515091
0.000451764
0.000509786
0.000520717
0.000494904
0.00051471
0.000451419
0.000509404
0.000518687
0.000492878
0.000512648
0.000449519
0.000507346
0.000518403
0.000492598
0.000512359
0.000449258
0.000507058
0.000517445
0.000491648
0.000511383
0.000448371
0.000506086
0.00051728
0.000491486
0.000511214
0.00044822
0.000505917
0.000516834
0.000491045
0.00051076
0.000447808
0.000505464
0.000516763
0.000490974
0.000510686
0.000447742
0.00050539
0.000516632
0.000490845
0.000510553
0.000447622
0.000505258
0.000516632
0.000490845
0.000510553
0.000447622
0.000505258
0.000516763
0.000490974
0.000510686
0.000447742
0.00050539
0.000516834
0.000491045
0.00051076
0.000447808
0.000505464
0.00051728
0.000491486
0.000511214
0.00044822
0.000505917
0.000517445
0.000491648
0.000511383
0.000448371
0.000506086
0.000518403
0.000492598
0.000512359
0.000449258
0.000507058
0.000518687
0.000492878
0.000512648
0.000449519
0.000507346
0.000520717
0.000494904
0.00051471
0.000451419
0.000509404
0.000521093
0.000495277
0.000515091
0.000451764
0.000509786
0.000526885
0.000501182
0.000520965
0.000457527
0.000515774
0.000526584
0.000501153
0.00052115
0.000457968
0.000518495
0.000520887
0.00049535
0.000515376
0.000452306
0.000512603
0.000520513
0.00049498
0.000514998
0.000451963
0.000512223
0.000518482
0.000492954
0.000512935
0.000450061
0.000510159
0.000518199
0.000492675
0.000512647
0.000449801
0.00050987
0.000517238
0.000491724
0.000511669
0.000448913
0.000508894
0.000517074
0.000491561
0.000511501
0.000448761
0.000508725
0.000516627
0.00049112
0.000511046
0.000448348
0.00050827
0.000516556
0.000491049
0.000510972
0.000448282
0.000508197
0.000516425
0.00049092
0.000510839
0.000448162
0.000508063
0.000516425
0.00049092
0.000510839
0.000448162
0.000508063
0.000516556
0.000491049
0.000510972
0.000448282
0.000508197
0.000516627
0.00049112
0.000511046
0.000448348
0.00050827
0.000517074
0.000491561
0.000511501
0.000448761
0.000508725
0.000517238
0.000491724
0.000511669
0.000448913
0.000508894
0.000518199
0.000492675
0.000512647
0.000449801
0.00050987
0.000518482
0.000492954
0.000512935
0.000450061
0.000510159
0.000520513
0.00049498
0.000514998
0.000451963
0.000512223
0.000520887
0.00049535
0.000515376
0.000452306
0.000512603
0.000526584
0.000501153
0.00052115
0.000457968
0.000518495
0.000526376
0.000501236
0.000521422
0.000458609
0.000520363
0.00052078
0.000495539
0.000515753
0.000453049
0.000514555
0.000520408
0.000495172
0.000515378
0.000452708
0.000514177
0.000518379
0.000493148
0.000513317
0.000450806
0.000512107
0.000518097
0.00049287
0.00051303
0.000450547
0.000511819
0.000517136
0.000491918
0.000512052
0.000449657
0.000510839
0.000516972
0.000491757
0.000511884
0.000449505
0.00051067
0.000516524
0.000491315
0.000511428
0.000449092
0.000510213
0.000516453
0.000491245
0.000511355
0.000449026
0.000510139
0.000516322
0.000491115
0.000511222
0.000448905
0.000510005
0.000516322
0.000491115
0.000511222
0.000448905
0.000510005
0.000516453
0.000491245
0.000511355
0.000449026
0.000510139
0.000516524
0.000491315
0.000511428
0.000449092
0.000510213
0.000516972
0.000491757
0.000511884
0.000449505
0.00051067
0.000517136
0.000491918
0.000512052
0.000449657
0.000510839
0.000518097
0.00049287
0.00051303
0.000450547
0.000511819
0.000518379
0.000493148
0.000513317
0.000450806
0.000512107
0.000520408
0.000495172
0.000515378
0.000452708
0.000514177
0.00052078
0.000495539
0.000515753
0.000453049
0.000514555
0.000526376
0.000501236
0.000521422
0.000458609
0.000520363
0.000526054
0.000501201
0.000521563
0.000459146
0.000519162
0.000520557
0.000495609
0.000515999
0.000453688
0.000513452
0.000520189
0.000495246
0.000515626
0.00045335
0.000513077
0.000518161
0.000493225
0.000513569
0.000451448
0.000511011
0.00051788
0.000492947
0.000513283
0.00045119
0.000510723
0.000516919
0.000491996
0.000512304
0.000450298
0.000509743
0.000516755
0.000491835
0.000512137
0.000450147
0.000509575
0.000516308
0.000491393
0.000511681
0.000449733
0.000509118
0.000516237
0.000491323
0.000511608
0.000449667
0.000509044
0.000516106
0.000491193
0.000511474
0.000449546
0.00050891
0.000516106
0.000491193
0.000511474
0.000449546
0.00050891
0.000516237
0.000491323
0.000511608
0.000449667
0.000509044
0.000516308
0.000491393
0.000511681
0.000449733
0.000509118
0.000516755
0.000491835
0.000512137
0.000450147
0.000509575
0.000516919
0.000491996
0.000512304
0.000450298
0.000509743
0.00051788
0.000492947
0.000513283
0.00045119
0.000510723
0.000518161
0.000493225
0.000513569
0.000451448
0.000511011
0.000520189
0.000495246
0.000515626
0.00045335
0.000513077
0.000520557
0.000495609
0.000515999
0.000453688
0.000513452
0.000526054
0.000501201
0.000521563
0.000459146
0.000519162
0.000525694
0.000501115
0.000521645
0.000459554
0.000517086
0.000520293
0.000495625
0.000516183
0.000454195
0.000511479
0.000519927
0.000495264
0.000515814
0.000453859
0.000511107
0.000517903
0.000493247
0.000513759
0.00045196
0.000509047
0.000517622
0.00049297
0.000513474
0.000451701
0.000508761
0.000516661
0.000492019
0.000512495
0.000450809
0.000507782
0.000516497
0.000491858
0.000512329
0.000450658
0.000507614
0.00051605
0.000491416
0.000511872
0.000450244
0.000507158
0.000515979
0.000491346
0.0005118
0.000450178
0.000507084
0.000515848
0.000491217
0.000511666
0.000450057
0.000506951
0.000515848
0.000491217
0.000511666
0.000450057
0.000506951
0.000515979
0.000491346
0.0005118
0.000450178
0.000507084
0.00051605
0.000491416
0.000511872
0.000450244
0.000507158
0.000516497
0.000491858
0.000512329
0.000450658
0.000507614
0.000516661
0.000492019
0.000512495
0.000450809
0.000507782
0.000517622
0.00049297
0.000513474
0.000451701
0.000508761
0.000517903
0.000493247
0.000513759
0.00045196
0.000509047
0.000519927
0.000495264
0.000515814
0.000453859
0.000511107
0.000520293
0.000495625
0.000516183
0.000454195
0.000511479
0.000525694
0.000501115
0.000521645
0.000459554
0.000517086
0.000525357
0.00050104
0.000521734
0.000459879
0.00051527
0.00052005
0.00049565
0.000516371
0.000454618
0.000509763
0.000519687
0.000495292
0.000516004
0.000454284
0.000509395
0.000517665
0.000493277
0.000513953
0.000452387
0.000507341
0.000517385
0.000493002
0.000513669
0.000452129
0.000507056
0.000516423
0.00049205
0.00051269
0.000451236
0.000506078
0.00051626
0.00049189
0.000512524
0.000451086
0.000505911
0.000515812
0.000491448
0.000512067
0.000450671
0.000505455
0.000515742
0.000491378
0.000511995
0.000450605
0.000505382
0.000515611
0.000491249
0.000511861
0.000450484
0.000505248
0.000515611
0.000491249
0.000511861
0.000450484
0.000505248
0.000515742
0.000491378
0.000511995
0.000450605
0.000505382
0.000515812
0.000491448
0.000512067
0.000450671
0.000505455
0.00051626
0.00049189
0.000512524
0.000451086
0.000505911
0.000516423
0.00049205
0.00051269
0.000451236
0.000506078
0.000517385
0.000493002
0.000513669
0.000452129
0.000507056
0.000517665
0.000493277
0.000513953
0.000452387
0.000507341
0.000519687
0.000495292
0.000516004
0.000454284
0.000509395
0.00052005
0.00049565
0.000516371
0.000454618
0.000509763
0.000525357
0.00050104
0.000521734
0.000459879
0.00051527
0.00052505
0.000500986
0.00052184
0.000460143
0.000513718
0.000519836
0.000495693
0.000516572
0.000454979
0.000508306
0.000519475
0.000495338
0.000516209
0.000454647
0.000507941
0.000517456
0.000493327
0.000514161
0.000452752
0.000505894
0.000517178
0.000493053
0.000513878
0.000452496
0.00050561
0.000516215
0.000492101
0.000512899
0.000451602
0.000504633
0.000516053
0.000491942
0.000512733
0.000451452
0.000504466
0.000515604
0.000491499
0.000512276
0.000451036
0.00050401
0.000515534
0.00049143
0.000512204
0.000450971
0.000503937
0.000515403
0.0004913
0.00051207
0.000450849
0.000503804
0.000515403
0.0004913
0.00051207
0.000450849
0.000503804
0.000515534
0.00049143
0.000512204
0.000450971
0.000503937
0.000515604
0.000491499
0.000512276
0.000451036
0.00050401
0.000516053
0.000491942
0.000512733
0.000451452
0.000504466
0.000516215
0.000492101
0.000512899
0.000451602
0.000504633
0.000517178
0.000493053
0.000513878
0.000452496
0.00050561
0.000517456
0.000493327
0.000514161
0.000452752
0.000505894
0.000519475
0.000495338
0.000516209
0.000454647
0.000507941
0.000519836
0.000495693
0.000516572
0.000454979
0.000508306
0.00052505
0.000500986
0.00052184
0.000460143
0.000513718
0.000524767
0.000500947
0.000521955
0.000460348
0.000512229
0.000519642
0.000495749
0.000516782
0.000455278
0.000506911
0.000519284
0.000495396
0.000516421
0.000454949
0.000506549
0.000517268
0.00049339
0.000514377
0.000453057
0.000504507
0.00051699
0.000493116
0.000514095
0.000452801
0.000504225
0.000516028
0.000492165
0.000513116
0.000451907
0.000503249
0.000515866
0.000492005
0.000512951
0.000451757
0.000503083
0.000515417
0.000491563
0.000512494
0.000451341
0.000502627
0.000515347
0.000491494
0.000512422
0.000451276
0.000502554
0.000515216
0.000491364
0.000512288
0.000451155
0.000502421
0.000515216
0.000491364
0.000512288
0.000451155
0.000502421
0.000515347
0.000491494
0.000512422
0.000451276
0.000502554
0.000515417
0.000491563
0.000512494
0.000451341
0.000502627
0.000515866
0.000492005
0.000512951
0.000451757
0.000503083
0.000516028
0.000492165
0.000513116
0.000451907
0.000503249
0.00051699
0.000493116
0.000514095
0.000452801
0.000504225
0.000517268
0.00049339
0.000514377
0.000453057
0.000504507
0.000519284
0.000495396
0.000516421
0.000454949
0.000506549
0.000519642
0.000495749
0.000516782
0.000455278
0.000506911
0.000524767
0.000500947
0.000521955
0.000460348
0.000512229
0.0005245
0.000500917
0.000522076
0.000460489
0.000510734
0.000519464
0.000495812
0.000516996
0.000455512
0.000505507
0.000519108
0.000495462
0.000516637
0.000455186
0.000505148
0.000517096
0.000493459
0.000514598
0.000453297
0.000503113
0.000516819
0.000493187
0.000514317
0.000453042
0.000502832
0.000515856
0.000492235
0.000513338
0.000452148
0.000501857
0.000515695
0.000492077
0.000513173
0.000451999
0.000501691
0.000515246
0.000491634
0.000512716
0.000451583
0.000501236
0.000515176
0.000491565
0.000512644
0.000451518
0.000501163
0.000515045
0.000491435
0.00051251
0.000451396
0.00050103
0.000515045
0.000491435
0.00051251
0.000451396
0.00050103
0.000515176
0.000491565
0.000512644
0.000451518
0.000501163
0.000515246
0.000491634
0.000512716
0.000451583
0.000501236
0.000515695
0.000492077
0.000513173
0.000451999
0.000501691
0.000515856
0.000492235
0.000513338
0.000452148
0.000501857
0.000516819
0.000493187
0.000514317
0.000453042
0.000502832
0.000517096
0.000493459
0.000514598
0.000453297
0.000503113
0.000519108
0.000495462
0.000516637
0.000455186
0.000505148
0.000519464
0.000495812
0.000516996
0.000455512
0.000505507
0.0005245
0.000500917
0.000522076
0.000460489
0.000510734
0.000524251
0.000500896
0.000522205
0.000460568
0.000509245
0.000519301
0.000495882
0.000517216
0.000455683
0.000504106
0.000518947
0.000495534
0.000516859
0.000455358
0.00050375
0.000516939
0.000493536
0.000514825
0.000453474
0.000501722
0.000516664
0.000493265
0.000514545
0.00045322
0.000501442
0.000515701
0.000492313
0.000513566
0.000452326
0.000500468
0.00051554
0.000492155
0.000513402
0.000452178
0.000500303
0.000515091
0.000491712
0.000512944
0.000451761
0.000499848
0.000515021
0.000491644
0.000512873
0.000451697
0.000499776
0.000514889
0.000491514
0.000512739
0.000451575
0.000499642
0.000514889
0.000491514
0.000512739
0.000451575
0.000499642
0.000515021
0.000491644
0.000512873
0.000451697
0.000499776
0.000515091
0.000491712
0.000512944
0.000451761
0.000499848
0.00051554
0.000492155
0.000513402
0.000452178
0.000500303
0.000515701
0.000492313
0.000513566
0.000452326
0.000500468
0.000516664
0.000493265
0.000514545
0.00045322
0.000501442
0.000516939
0.000493536
0.000514825
0.000453474
0.000501722
0.000518947
0.000495534
0.000516859
0.000455358
0.00050375
0.000519301
0.000495882
0.000517216
0.000455683
0.000504106
0.000524251
0.000500896
0.000522205
0.000460568
0.000509245
0.00052402
0.000500886
0.000522344
0.000460585
0.000507774
0.000519154
0.00049596
0.000517443
0.00045579
0.000502721
0.000518803
0.000495614
0.000517089
0.000455468
0.000502368
0.000516799
0.000493621
0.000515059
0.000453589
0.000500347
0.000516524
0.000493351
0.00051478
0.000453336
0.000500069
0.000515561
0.0004924
0.000513801
0.000452442
0.000499095
0.000515401
0.000492242
0.000513638
0.000452294
0.000498931
0.000514951
0.000491799
0.00051318
0.000451878
0.000498476
0.000514882
0.00049173
0.000513109
0.000451813
0.000498405
0.00051475
0.000491601
0.000512975
0.000451691
0.000498271
0.00051475
0.000491601
0.000512975
0.000451691
0.000498271
0.000514882
0.00049173
0.000513109
0.000451813
0.000498405
0.000514951
0.000491799
0.00051318
0.000451878
0.000498476
0.000515401
0.000492242
0.000513638
0.000452294
0.000498931
0.000515561
0.0004924
0.000513801
0.000452442
0.000499095
0.000516524
0.000493351
0.00051478
0.000453336
0.000500069
0.000516799
0.000493621
0.000515059
0.000453589
0.000500347
0.000518803
0.000495614
0.000517089
0.000455468
0.000502368
0.000519154
0.00049596
0.000517443
0.00045579
0.000502721
0.00052402
0.000500886
0.000522344
0.000460585
0.000507774
0.000523806
0.000500885
0.000522494
0.000460541
0.000506255
0.000519022
0.000496046
0.000517679
0.000455835
0.000501288
0.000518673
0.000495703
0.000517328
0.000455515
0.000500937
0.000516674
0.000493715
0.000515303
0.000453641
0.000498925
0.0005164
0.000493446
0.000515025
0.000453389
0.000498647
0.000515437
0.000492494
0.000514046
0.000452496
0.000497675
0.000515277
0.000492337
0.000513883
0.000452348
0.000497512
0.000514828
0.000491894
0.000513425
0.000451932
0.000497057
0.000514758
0.000491826
0.000513354
0.000451868
0.000496986
0.000514627
0.000491696
0.00051322
0.000451746
0.000496852
0.000514627
0.000491696
0.00051322
0.000451746
0.000496852
0.000514758
0.000491826
0.000513354
0.000451868
0.000496986
0.000514828
0.000491894
0.000513425
0.000451932
0.000497057
0.000515277
0.000492337
0.000513883
0.000452348
0.000497512
0.000515437
0.000492494
0.000514046
0.000452496
0.000497675
0.0005164
0.000493446
0.000515025
0.000453389
0.000498647
0.000516674
0.000493715
0.000515303
0.000453641
0.000498925
0.000518673
0.000495703
0.000517328
0.000455515
0.000500937
0.000519022
0.000496046
0.000517679
0.000455835
0.000501288
0.000523806
0.000500885
0.000522494
0.000460541
0.000506255
-1.62714e-05
1.58257e-05
2.83003e-06
6.98611e-07
2.51263e-07
1.80747e-07
1.65298e-07
1.62494e-07
1.61806e-07
1.61662e-07
1.61615e-07
1.61593e-07
1.61495e-07
1.61386e-07
1.60519e-07
1.59851e-07
1.53415e-07
1.50644e-07
1.11916e-07
1.07812e-07
-1.6341e-05
1.57863e-05
2.84451e-06
7.03601e-07
2.52486e-07
1.81047e-07
1.6535e-07
1.62493e-07
1.61789e-07
1.61642e-07
1.61593e-07
1.61571e-07
1.61471e-07
1.61359e-07
1.60478e-07
1.59803e-07
1.53295e-07
1.50518e-07
1.11616e-07
1.076e-07
-1.63342e-05
1.57755e-05
2.84109e-06
7.0313e-07
2.52391e-07
1.81035e-07
1.65347e-07
1.62492e-07
1.61789e-07
1.61641e-07
1.61593e-07
1.61571e-07
1.61471e-07
1.61359e-07
1.60477e-07
1.59802e-07
1.53293e-07
1.50516e-07
1.11613e-07
1.07598e-07
-1.63043e-05
1.57223e-05
2.82449e-06
7.00903e-07
2.51955e-07
1.80977e-07
1.65334e-07
1.6249e-07
1.61787e-07
1.6164e-07
1.61592e-07
1.61569e-07
1.61469e-07
1.61357e-07
1.60475e-07
1.59799e-07
1.53286e-07
1.50509e-07
1.11601e-07
1.07592e-07
-1.62984e-05
1.57136e-05
2.82139e-06
7.00418e-07
2.51845e-07
1.80959e-07
1.6533e-07
1.62489e-07
1.61787e-07
1.6164e-07
1.61591e-07
1.61569e-07
1.61469e-07
1.61357e-07
1.60475e-07
1.59799e-07
1.53286e-07
1.50509e-07
1.11601e-07
1.07591e-07
-1.62811e-05
1.56874e-05
2.81231e-06
6.99056e-07
2.51545e-07
1.8091e-07
1.65318e-07
1.62486e-07
1.61786e-07
1.6164e-07
1.61591e-07
1.61569e-07
1.61469e-07
1.61357e-07
1.60474e-07
1.59798e-07
1.53286e-07
1.50509e-07
1.11601e-07
1.07591e-07
-1.62777e-05
1.56823e-05
2.8105e-06
6.98769e-07
2.51478e-07
1.80899e-07
1.65316e-07
1.62486e-07
1.61786e-07
1.6164e-07
1.61591e-07
1.61569e-07
1.61469e-07
1.61357e-07
1.60474e-07
1.59798e-07
1.53286e-07
1.50509e-07
1.11601e-07
1.07591e-07
-1.62695e-05
1.56702e-05
2.80626e-06
6.98127e-07
2.51334e-07
1.80875e-07
1.6531e-07
1.62485e-07
1.61786e-07
1.6164e-07
1.61591e-07
1.61569e-07
1.61469e-07
1.61357e-07
1.60474e-07
1.59798e-07
1.53286e-07
1.50509e-07
1.11601e-07
1.07591e-07
-1.6268e-05
1.5668e-05
2.80548e-06
6.98002e-07
2.51305e-07
1.8087e-07
1.65309e-07
1.62484e-07
1.61786e-07
1.6164e-07
1.61591e-07
1.61569e-07
1.61469e-07
1.61357e-07
1.60474e-07
1.59798e-07
1.53286e-07
1.50509e-07
1.11601e-07
1.07591e-07
-1.62656e-05
1.56644e-05
2.80424e-06
6.97815e-07
2.51263e-07
1.80863e-07
1.65307e-07
1.62484e-07
1.61786e-07
1.6164e-07
1.61591e-07
1.61569e-07
1.61469e-07
1.61357e-07
1.60474e-07
1.59798e-07
1.53286e-07
1.50509e-07
1.11601e-07
1.07591e-07
-1.62656e-05
1.56644e-05
2.80424e-06
6.97815e-07
2.51263e-07
1.80863e-07
1.65307e-07
1.62484e-07
1.61786e-07
1.6164e-07
1.61591e-07
1.61569e-07
1.61469e-07
1.61357e-07
1.60474e-07
1.59798e-07
1.53286e-07
1.50509e-07
1.11601e-07
1.07591e-07
-1.6268e-05
1.5668e-05
2.80548e-06
6.98002e-07
2.51305e-07
1.8087e-07
1.65309e-07
1.62484e-07
1.61786e-07
1.6164e-07
1.61591e-07
1.61569e-07
1.61469e-07
1.61357e-07
1.60474e-07
1.59798e-07
1.53286e-07
1.50509e-07
1.11601e-07
1.07591e-07
-1.62695e-05
1.56702e-05
2.80626e-06
6.98127e-07
2.51334e-07
1.80875e-07
1.6531e-07
1.62485e-07
1.61786e-07
1.6164e-07
1.61591e-07
1.61569e-07
1.61469e-07
1.61357e-07
1.60474e-07
1.59798e-07
1.53286e-07
1.50509e-07
1.11601e-07
1.07591e-07
-1.62777e-05
1.56823e-05
2.8105e-06
6.98769e-07
2.51478e-07
1.80899e-07
1.65316e-07
1.62486e-07
1.61786e-07
1.6164e-07
1.61591e-07
1.61569e-07
1.61469e-07
1.61357e-07
1.60474e-07
1.59798e-07
1.53286e-07
1.50509e-07
1.11601e-07
1.07591e-07
-1.62811e-05
1.56874e-05
2.81231e-06
6.99056e-07
2.51545e-07
1.8091e-07
1.65318e-07
1.62486e-07
1.61786e-07
1.6164e-07
1.61591e-07
1.61569e-07
1.61469e-07
1.61357e-07
1.60474e-07
1.59798e-07
1.53286e-07
1.50509e-07
1.11601e-07
1.07591e-07
-1.62984e-05
1.57136e-05
2.82139e-06
7.00418e-07
2.51845e-07
1.80959e-07
1.6533e-07
1.62489e-07
1.61787e-07
1.6164e-07
1.61591e-07
1.61569e-07
1.61469e-07
1.61357e-07
1.60475e-07
1.59799e-07
1.53286e-07
1.50509e-07
1.11601e-07
1.07591e-07
-1.63043e-05
1.57223e-05
2.82449e-06
7.00903e-07
2.51955e-07
1.80977e-07
1.65334e-07
1.6249e-07
1.61787e-07
1.6164e-07
1.61592e-07
1.61569e-07
1.61469e-07
1.61357e-07
1.60475e-07
1.59799e-07
1.53286e-07
1.50509e-07
1.11601e-07
1.07592e-07
-1.63342e-05
1.57755e-05
2.84109e-06
7.0313e-07
2.52391e-07
1.81035e-07
1.65347e-07
1.62492e-07
1.61789e-07
1.61641e-07
1.61593e-07
1.61571e-07
1.61471e-07
1.61359e-07
1.60477e-07
1.59802e-07
1.53293e-07
1.50516e-07
1.11613e-07
1.07598e-07
-1.6341e-05
1.57863e-05
2.84451e-06
7.03601e-07
2.52486e-07
1.81047e-07
1.6535e-07
1.62493e-07
1.61789e-07
1.61642e-07
1.61593e-07
1.61571e-07
1.61471e-07
1.61359e-07
1.60478e-07
1.59803e-07
1.53295e-07
1.50518e-07
1.11616e-07
1.076e-07
-1.62714e-05
1.58257e-05
2.83003e-06
6.98611e-07
2.51263e-07
1.80747e-07
1.65298e-07
1.62494e-07
1.61806e-07
1.61662e-07
1.61615e-07
1.61593e-07
1.61495e-07
1.61386e-07
1.60519e-07
1.59851e-07
1.53415e-07
1.50644e-07
1.11916e-07
1.07812e-07
-1.58878e-05
1.59965e-05
2.85554e-06
7.04046e-07
2.52213e-07
1.80967e-07
1.65323e-07
1.62588e-07
1.61896e-07
1.6175e-07
1.61703e-07
1.61681e-07
1.61581e-07
1.6147e-07
1.60564e-07
1.59833e-07
1.53333e-07
1.50537e-07
1.11321e-07
1.07188e-07
-1.59524e-05
1.5957e-05
2.87019e-06
7.09092e-07
2.53451e-07
1.81271e-07
1.65377e-07
1.62586e-07
1.6188e-07
1.6173e-07
1.61681e-07
1.61659e-07
1.61557e-07
1.61444e-07
1.60522e-07
1.59784e-07
1.53212e-07
1.50409e-07
1.11017e-07
1.06972e-07
-1.59454e-05
1.59461e-05
2.86673e-06
7.08616e-07
2.53355e-07
1.81258e-07
1.65374e-07
1.62586e-07
1.6188e-07
1.6173e-07
1.61681e-07
1.61658e-07
1.61557e-07
1.61444e-07
1.60521e-07
1.59783e-07
1.5321e-07
1.50407e-07
1.11014e-07
1.0697e-07
-1.59146e-05