/*--------------------------------*- C++ -*----------------------------------*\
  =========                 |
  \\      /  F ield         | OpenFOAM: The Open Source CFD Toolbox
   \\    /   O peration     | Website:  https://openfoam.org
    \\  /    A nd           | Version:  8
     \\/     M anipulation  |
\*---------------------------------------------------------------------------*/
FoamFile
{
    version     2.0;
    format      ascii;
    class       volScalarField;
    location    "4.9";
    object      S1;
}
// * * * * * * * * * * * * * * * * * * * * * * * * * * * * * * * * * * * * * //

dimensions      [0 1 -1 0 0 0 0];

internalField   nonuniform List<scalar> 
180000
(
2.15978e-24
4.21821e-20
7.01925e-16
9.7144e-12
1.1278e-07
2.48193e-24
4.74638e-20
7.77499e-16
1.06187e-11
1.21794e-07
2.48588e-24
4.75241e-20
7.78258e-16
1.06261e-11
1.21844e-07
2.49485e-24
4.76632e-20
7.80041e-16
1.06445e-11
1.21979e-07
2.49262e-24
4.76232e-20
7.79398e-16
1.06357e-11
1.21875e-07
2.48595e-24
4.75068e-20
7.77577e-16
1.06117e-11
1.21602e-07
2.48465e-24
4.74835e-20
7.77206e-16
1.06067e-11
1.21542e-07
2.48153e-24
4.74288e-20
7.76348e-16
1.05953e-11
1.21412e-07
2.48102e-24
4.74198e-20
7.76202e-16
1.05933e-11
1.21388e-07
2.48019e-24
4.7405e-20
7.75968e-16
1.05902e-11
1.21351e-07
2.48019e-24
4.7405e-20
7.75968e-16
1.05902e-11
1.21351e-07
2.48102e-24
4.74198e-20
7.76202e-16
1.05933e-11
1.21388e-07
2.48153e-24
4.74288e-20
7.76348e-16
1.05953e-11
1.21412e-07
2.48465e-24
4.74835e-20
7.77206e-16
1.06067e-11
1.21542e-07
2.48595e-24
4.75068e-20
7.77577e-16
1.06117e-11
1.21602e-07
2.49262e-24
4.76232e-20
7.79398e-16
1.06357e-11
1.21875e-07
2.49485e-24
4.76632e-20
7.80041e-16
1.06445e-11
1.21979e-07
2.48588e-24
4.75241e-20
7.78258e-16
1.06261e-11
1.21844e-07
2.48193e-24
4.74639e-20
7.77499e-16
1.06187e-11
1.21794e-07
2.15978e-24
4.21821e-20
7.01925e-16
9.7144e-12
1.1278e-07
2.15976e-24
4.2181e-20
7.01878e-16
9.7172e-12
1.1845e-07
2.48191e-24
4.74625e-20
7.77446e-16
1.06215e-11
1.2767e-07
2.48586e-24
4.75227e-20
7.78206e-16
1.06289e-11
1.27718e-07
2.49483e-24
4.76618e-20
7.79989e-16
1.06473e-11
1.27841e-07
2.4926e-24
4.76218e-20
7.79347e-16
1.06385e-11
1.27731e-07
2.48593e-24
4.75054e-20
7.77526e-16
1.06145e-11
1.27442e-07
2.48463e-24
4.74821e-20
7.77155e-16
1.06095e-11
1.27379e-07
2.48151e-24
4.74274e-20
7.76297e-16
1.05981e-11
1.27241e-07
2.481e-24
4.74183e-20
7.7615e-16
1.05961e-11
1.27215e-07
2.48017e-24
4.74036e-20
7.75917e-16
1.0593e-11
1.27177e-07
2.48017e-24
4.74036e-20
7.75917e-16
1.0593e-11
1.27177e-07
2.481e-24
4.74183e-20
7.7615e-16
1.05961e-11
1.27215e-07
2.48151e-24
4.74274e-20
7.76297e-16
1.05981e-11
1.27241e-07
2.48463e-24
4.74821e-20
7.77155e-16
1.06095e-11
1.27379e-07
2.48593e-24
4.75054e-20
7.77526e-16
1.06145e-11
1.27442e-07
2.4926e-24
4.76218e-20
7.79347e-16
1.06385e-11
1.27731e-07
2.49483e-24
4.76618e-20
7.79989e-16
1.06473e-11
1.27841e-07
2.48586e-24
4.75227e-20
7.78206e-16
1.06289e-11
1.27718e-07
2.48191e-24
4.74625e-20
7.77446e-16
1.06215e-11
1.2767e-07
2.15976e-24
4.2181e-20
7.01878e-16
9.7172e-12
1.1845e-07
2.15974e-24
4.21786e-20
7.01805e-16
9.733e-12
1.41721e-07
2.48189e-24
4.74597e-20
7.77365e-16
1.06375e-11
1.51491e-07
2.48584e-24
4.752e-20
7.78125e-16
1.06449e-11
1.51529e-07
2.49482e-24
4.76591e-20
7.79908e-16
1.06632e-11
1.51623e-07
2.49258e-24
4.76191e-20
7.79266e-16
1.06544e-11
1.51497e-07
2.48592e-24
4.75026e-20
7.77446e-16
1.06303e-11
1.51165e-07
2.48461e-24
4.74794e-20
7.77074e-16
1.06253e-11
1.51092e-07
2.48149e-24
4.74247e-20
7.76217e-16
1.06139e-11
1.50933e-07
2.48099e-24
4.74156e-20
7.7607e-16
1.06119e-11
1.50904e-07
2.48015e-24
4.74009e-20
7.75837e-16
1.06088e-11
1.5086e-07
2.48015e-24
4.74009e-20
7.75837e-16
1.06088e-11
1.5086e-07
2.48099e-24
4.74156e-20
7.7607e-16
1.06119e-11
1.50904e-07
2.48149e-24
4.74247e-20
7.76217e-16
1.06139e-11
1.50933e-07
2.48461e-24
4.74794e-20
7.77074e-16
1.06253e-11
1.51092e-07
2.48592e-24
4.75026e-20
7.77446e-16
1.06303e-11
1.51165e-07
2.49258e-24
4.76191e-20
7.79266e-16
1.06544e-11
1.51497e-07
2.49482e-24
4.76591e-20
7.79908e-16
1.06632e-11
1.51623e-07
2.48584e-24
4.752e-20
7.78125e-16
1.06449e-11
1.51529e-07
2.48189e-24
4.74597e-20
7.77365e-16
1.06375e-11
1.51491e-07
2.15974e-24
4.21786e-20
7.01805e-16
9.733e-12
1.41721e-07
2.15973e-24
4.21744e-20
7.01727e-16
9.77678e-12
1.91224e-07
2.48187e-24
4.7455e-20
7.77275e-16
1.06816e-11
2.01689e-07
2.48583e-24
4.75153e-20
7.78036e-16
1.0689e-11
2.01713e-07
2.4948e-24
4.76543e-20
7.79819e-16
1.07071e-11
2.01772e-07
2.49256e-24
4.76143e-20
7.79177e-16
1.06983e-11
2.01624e-07
2.4859e-24
4.74979e-20
7.77357e-16
1.06741e-11
2.01234e-07
2.48459e-24
4.74747e-20
7.76986e-16
1.06691e-11
2.01148e-07
2.48147e-24
4.742e-20
7.76129e-16
1.06576e-11
2.0096e-07
2.48097e-24
4.74109e-20
7.75982e-16
1.06556e-11
2.00925e-07
2.48013e-24
4.73962e-20
7.75749e-16
1.06525e-11
2.00872e-07
2.48013e-24
4.73962e-20
7.75749e-16
1.06525e-11
2.00872e-07
2.48097e-24
4.74109e-20
7.75982e-16
1.06556e-11
2.00925e-07
2.48147e-24
4.742e-20
7.76129e-16
1.06576e-11
2.0096e-07
2.48459e-24
4.74747e-20
7.76986e-16
1.06691e-11
2.01148e-07
2.4859e-24
4.74979e-20
7.77357e-16
1.06741e-11
2.01234e-07
2.49256e-24
4.76143e-20
7.79177e-16
1.06983e-11
2.01624e-07
2.4948e-24
4.76543e-20
7.79819e-16
1.07071e-11
2.01772e-07
2.48583e-24
4.75153e-20
7.78036e-16
1.0689e-11
2.01713e-07
2.48187e-24
4.7455e-20
7.77275e-16
1.06816e-11
2.01689e-07
2.15973e-24
4.21744e-20
7.01727e-16
9.77678e-12
1.91224e-07
2.15971e-24
4.21685e-20
7.01669e-16
9.86528e-12
2.69495e-07
2.48184e-24
4.74482e-20
7.77201e-16
1.07703e-11
2.80575e-07
2.4858e-24
4.75086e-20
7.77963e-16
1.07777e-11
2.80578e-07
2.49477e-24
4.76476e-20
7.79747e-16
1.07955e-11
2.80585e-07
2.49254e-24
4.76077e-20
7.79105e-16
1.07867e-11
2.80409e-07
2.48587e-24
4.74912e-20
7.77285e-16
1.07623e-11
2.79949e-07
2.48457e-24
4.7468e-20
7.76914e-16
1.07572e-11
2.79846e-07
2.48145e-24
4.74133e-20
7.76057e-16
1.07457e-11
2.79624e-07
2.48094e-24
4.74043e-20
7.75911e-16
1.07436e-11
2.79582e-07
2.48011e-24
4.73895e-20
7.75678e-16
1.07405e-11
2.79519e-07
2.48011e-24
4.73895e-20
7.75678e-16
1.07405e-11
2.79519e-07
2.48094e-24
4.74043e-20
7.75911e-16
1.07436e-11
2.79582e-07
2.48145e-24
4.74133e-20
7.76057e-16
1.07457e-11
2.79624e-07
2.48457e-24
4.7468e-20
7.76914e-16
1.07572e-11
2.79846e-07
2.48587e-24
4.74912e-20
7.77285e-16
1.07623e-11
2.79949e-07
2.49254e-24
4.76077e-20
7.79105e-16
1.07867e-11
2.80409e-07
2.49477e-24
4.76476e-20
7.79747e-16
1.07955e-11
2.80585e-07
2.4858e-24
4.75086e-20
7.77963e-16
1.07777e-11
2.80578e-07
2.48184e-24
4.74482e-20
7.77201e-16
1.07703e-11
2.80575e-07
2.15971e-24
4.21685e-20
7.01669e-16
9.86528e-12
2.69495e-07
2.15968e-24
4.2161e-20
7.01669e-16
1.0016e-11
3.77703e-07
2.48181e-24
4.74397e-20
7.77182e-16
1.0921e-11
3.89197e-07
2.48577e-24
4.75002e-20
7.77944e-16
1.09282e-11
3.89169e-07
2.49475e-24
4.76392e-20
7.79728e-16
1.09456e-11
3.89075e-07
2.49251e-24
4.75993e-20
7.79086e-16
1.09366e-11
3.88865e-07
2.48584e-24
4.74829e-20
7.77267e-16
1.0912e-11
3.88314e-07
2.48454e-24
4.74597e-20
7.76896e-16
1.09068e-11
3.88191e-07
2.48142e-24
4.7405e-20
7.76039e-16
1.08951e-11
3.87924e-07
2.48091e-24
4.73959e-20
7.75893e-16
1.08931e-11
3.87873e-07
2.48008e-24
4.73812e-20
7.7566e-16
1.08899e-11
3.87797e-07
2.48008e-24
4.73812e-20
7.7566e-16
1.08899e-11
3.87797e-07
2.48091e-24
4.73959e-20
7.75893e-16
1.08931e-11
3.87873e-07
2.48142e-24
4.7405e-20
7.76039e-16
1.08951e-11
3.87924e-07
2.48454e-24
4.74597e-20
7.76896e-16
1.09068e-11
3.88191e-07
2.48584e-24
4.74829e-20
7.77267e-16
1.0912e-11
3.88314e-07
2.49251e-24
4.75993e-20
7.79086e-16
1.09366e-11
3.88865e-07
2.49475e-24
4.76392e-20
7.79728e-16
1.09456e-11
3.89075e-07
2.48577e-24
4.75002e-20
7.77944e-16
1.09282e-11
3.89169e-07
2.48181e-24
4.74397e-20
7.77182e-16
1.0921e-11
3.89197e-07
2.15968e-24
4.2161e-20
7.01669e-16
1.0016e-11
3.77703e-07
2.15965e-24
4.21521e-20
7.01779e-16
1.02473e-11
5.17418e-07
2.48176e-24
4.74297e-20
7.77266e-16
1.11516e-11
5.29024e-07
2.48574e-24
4.74902e-20
7.7803e-16
1.11586e-11
5.28949e-07
2.49471e-24
4.76293e-20
7.79813e-16
1.11753e-11
5.28676e-07
2.49247e-24
4.75893e-20
7.79171e-16
1.11662e-11
5.28422e-07
2.48581e-24
4.7473e-20
7.77352e-16
1.11411e-11
5.27747e-07
2.48451e-24
4.74498e-20
7.76982e-16
1.11358e-11
5.27598e-07
2.48139e-24
4.73951e-20
7.76124e-16
1.1124e-11
5.27272e-07
2.48088e-24
4.7386e-20
7.75978e-16
1.11219e-11
5.27209e-07
2.48005e-24
4.73713e-20
7.75745e-16
1.11186e-11
5.27115e-07
2.48005e-24
4.73713e-20
7.75745e-16
1.11186e-11
5.27115e-07
2.48088e-24
4.7386e-20
7.75978e-16
1.11219e-11
5.27209e-07
2.48139e-24
4.73951e-20
7.76124e-16
1.1124e-11
5.27272e-07
2.48451e-24
4.74498e-20
7.76982e-16
1.11358e-11
5.27598e-07
2.48581e-24
4.7473e-20
7.77352e-16
1.11411e-11
5.27747e-07
2.49247e-24
4.75893e-20
7.79171e-16
1.11662e-11
5.28422e-07
2.49471e-24
4.76293e-20
7.79813e-16
1.11753e-11
5.28676e-07
2.48574e-24
4.74902e-20
7.7803e-16
1.11586e-11
5.28949e-07
2.48176e-24
4.74297e-20
7.77266e-16
1.11516e-11
5.29024e-07
2.15965e-24
4.21521e-20
7.01779e-16
1.02473e-11
5.17418e-07
2.15961e-24
4.21421e-20
7.02063e-16
1.05786e-11
6.90168e-07
2.48172e-24
4.74182e-20
7.77519e-16
1.14811e-11
7.01445e-07
2.4857e-24
4.74789e-20
7.78284e-16
1.14879e-11
7.01307e-07
2.49467e-24
4.76179e-20
7.80064e-16
1.15035e-11
7.0075e-07
2.49243e-24
4.7578e-20
7.79422e-16
1.14941e-11
7.00441e-07
2.48577e-24
4.74617e-20
7.77603e-16
1.14684e-11
6.99599e-07
2.48446e-24
4.74385e-20
7.77233e-16
1.1463e-11
6.99417e-07
2.48135e-24
4.73838e-20
7.76375e-16
1.14508e-11
6.99011e-07
2.48084e-24
4.73748e-20
7.76229e-16
1.14487e-11
6.98934e-07
2.48e-24
4.736e-20
7.75996e-16
1.14453e-11
6.98816e-07
2.48e-24
4.736e-20
7.75996e-16
1.14453e-11
6.98816e-07
2.48084e-24
4.73748e-20
7.76229e-16
1.14487e-11
6.98934e-07
2.48135e-24
4.73838e-20
7.76375e-16
1.14508e-11
6.99011e-07
2.48446e-24
4.74385e-20
7.77233e-16
1.1463e-11
6.99417e-07
2.48577e-24
4.74617e-20
7.77603e-16
1.14684e-11
6.99599e-07
2.49243e-24
4.7578e-20
7.79422e-16
1.14941e-11
7.00441e-07
2.49467e-24
4.76179e-20
7.80064e-16
1.15035e-11
7.0075e-07
2.4857e-24
4.74789e-20
7.78284e-16
1.14879e-11
7.01307e-07
2.48172e-24
4.74182e-20
7.77519e-16
1.14811e-11
7.01445e-07
2.15961e-24
4.21421e-20
7.02063e-16
1.05786e-11
6.90168e-07
2.15957e-24
4.2131e-20
7.02597e-16
1.10296e-11
8.96808e-07
2.48166e-24
4.74055e-20
7.78013e-16
1.19288e-11
9.0714e-07
2.48565e-24
4.74663e-20
7.78779e-16
1.19353e-11
9.06917e-07
2.49462e-24
4.76054e-20
7.80556e-16
1.19492e-11
9.05946e-07
2.49238e-24
4.75655e-20
7.79914e-16
1.19396e-11
9.05568e-07
2.48572e-24
4.74492e-20
7.78094e-16
1.1913e-11
9.04507e-07
2.48442e-24
4.7426e-20
7.77723e-16
1.19074e-11
9.04284e-07
2.4813e-24
4.73714e-20
7.76866e-16
1.18948e-11
9.03775e-07
2.48079e-24
4.73623e-20
7.76719e-16
1.18926e-11
9.0368e-07
2.47996e-24
4.73476e-20
7.76486e-16
1.18891e-11
9.03533e-07
2.47996e-24
4.73476e-20
7.76486e-16
1.18891e-11
9.03533e-07
2.48079e-24
4.73623e-20
7.76719e-16
1.18926e-11
9.0368e-07
2.4813e-24
4.73714e-20
7.76866e-16
1.18948e-11
9.03775e-07
2.48442e-24
4.7426e-20
7.77723e-16
1.19074e-11
9.04284e-07
2.48572e-24
4.74492e-20
7.78094e-16
1.1913e-11
9.04507e-07
2.49238e-24
4.75655e-20
7.79914e-16
1.19396e-11
9.05568e-07
2.49462e-24
4.76054e-20
7.80556e-16
1.19492e-11
9.05946e-07
2.48565e-24
4.74663e-20
7.78779e-16
1.19353e-11
9.06917e-07
2.48166e-24
4.74055e-20
7.78013e-16
1.19288e-11
9.0714e-07
2.15957e-24
4.2131e-20
7.02597e-16
1.10296e-11
8.96808e-07
2.15952e-24
4.21192e-20
7.03471e-16
1.16201e-11
1.13681e-06
2.48159e-24
4.73919e-20
7.78837e-16
1.25136e-11
1.14538e-06
2.48559e-24
4.74529e-20
7.79604e-16
1.25197e-11
1.14504e-06
2.49456e-24
4.75919e-20
7.81375e-16
1.25314e-11
1.1435e-06
2.49233e-24
4.7552e-20
7.80732e-16
1.25214e-11
1.14304e-06
2.48566e-24
4.74358e-20
7.7891e-16
1.24936e-11
1.1417e-06
2.48436e-24
4.74126e-20
7.78539e-16
1.24878e-11
1.14143e-06
2.48124e-24
4.73581e-20
7.7768e-16
1.24746e-11
1.14079e-06
2.48073e-24
4.7349e-20
7.77534e-16
1.24723e-11
1.14067e-06
2.4799e-24
4.73343e-20
7.77301e-16
1.24687e-11
1.14048e-06
2.4799e-24
4.73343e-20
7.77301e-16
1.24687e-11
1.14048e-06
2.48073e-24
4.7349e-20
7.77534e-16
1.24723e-11
1.14067e-06
2.48124e-24
4.73581e-20
7.7768e-16
1.24746e-11
1.14079e-06
2.48436e-24
4.74126e-20
7.78539e-16
1.24878e-11
1.14143e-06
2.48566e-24
4.74358e-20
7.7891e-16
1.24936e-11
1.1417e-06
2.49233e-24
4.7552e-20
7.80732e-16
1.25214e-11
1.14304e-06
2.49456e-24
4.75919e-20
7.81375e-16
1.25314e-11
1.1435e-06
2.48559e-24
4.74529e-20
7.79604e-16
1.25197e-11
1.14504e-06
2.48159e-24
4.73919e-20
7.78837e-16
1.25136e-11
1.14538e-06
2.15952e-24
4.21192e-20
7.03471e-16
1.16201e-11
1.13681e-06
2.15946e-24
4.21069e-20
7.04685e-16
1.22084e-11
1.13386e-06
2.48152e-24
4.73776e-20
7.79989e-16
1.30962e-11
1.14245e-06
2.48553e-24
4.74387e-20
7.80757e-16
1.31019e-11
1.14212e-06
2.4945e-24
4.75778e-20
7.8252e-16
1.31114e-11
1.1406e-06
2.49226e-24
4.75379e-20
7.81876e-16
1.3101e-11
1.14014e-06
2.4856e-24
4.74218e-20
7.80051e-16
1.3072e-11
1.13881e-06
2.48429e-24
4.73986e-20
7.79679e-16
1.3066e-11
1.13855e-06
2.48118e-24
4.7344e-20
7.78819e-16
1.30523e-11
1.13791e-06
2.48067e-24
4.7335e-20
7.78673e-16
1.30499e-11
1.1378e-06
2.47984e-24
4.73203e-20
7.78439e-16
1.30461e-11
1.13761e-06
2.47984e-24
4.73203e-20
7.78439e-16
1.30461e-11
1.13761e-06
2.48067e-24
4.7335e-20
7.78673e-16
1.30499e-11
1.1378e-06
2.48118e-24
4.7344e-20
7.78819e-16
1.30523e-11
1.13791e-06
2.48429e-24
4.73986e-20
7.79679e-16
1.3066e-11
1.13855e-06
2.4856e-24
4.74218e-20
7.80051e-16
1.3072e-11
1.13881e-06
2.49226e-24
4.75379e-20
7.81876e-16
1.3101e-11
1.14014e-06
2.4945e-24
4.75778e-20
7.8252e-16
1.31114e-11
1.1406e-06
2.48553e-24
4.74387e-20
7.80757e-16
1.31019e-11
1.14212e-06
2.48152e-24
4.73776e-20
7.79989e-16
1.30962e-11
1.14245e-06
2.15946e-24
4.21069e-20
7.04685e-16
1.22084e-11
1.13386e-06
2.15939e-24
4.20943e-20
7.06236e-16
1.27945e-11
1.131e-06
2.48143e-24
4.73629e-20
7.8147e-16
1.36767e-11
1.1396e-06
2.48545e-24
4.74242e-20
7.82238e-16
1.36819e-11
1.13928e-06
2.49443e-24
4.75632e-20
7.8399e-16
1.36892e-11
1.13779e-06
2.49219e-24
4.75233e-20
7.83346e-16
1.36785e-11
1.13733e-06
2.48553e-24
4.74073e-20
7.81517e-16
1.36483e-11
1.13602e-06
2.48422e-24
4.73841e-20
7.81144e-16
1.36421e-11
1.13575e-06
2.4811e-24
4.73296e-20
7.80282e-16
1.36279e-11
1.13512e-06
2.4806e-24
4.73205e-20
7.80135e-16
1.36254e-11
1.13501e-06
2.47976e-24
4.73058e-20
7.79901e-16
1.36214e-11
1.13483e-06
2.47976e-24
4.73058e-20
7.79901e-16
1.36214e-11
1.13483e-06
2.4806e-24
4.73205e-20
7.80135e-16
1.36254e-11
1.13501e-06
2.4811e-24
4.73296e-20
7.80282e-16
1.36279e-11
1.13512e-06
2.48422e-24
4.73841e-20
7.81144e-16
1.36421e-11
1.13575e-06
2.48553e-24
4.74073e-20
7.81517e-16
1.36483e-11
1.13602e-06
2.49219e-24
4.75233e-20
7.83346e-16
1.36785e-11
1.13733e-06
2.49443e-24
4.75632e-20
7.8399e-16
1.36892e-11
1.13779e-06
2.48545e-24
4.74242e-20
7.82238e-16
1.36819e-11
1.13928e-06
2.48143e-24
4.73629e-20
7.8147e-16
1.36767e-11
1.1396e-06
2.15939e-24
4.20943e-20
7.06236e-16
1.27945e-11
1.131e-06
2.15932e-24
4.20819e-20
7.08126e-16
1.33785e-11
1.12822e-06
2.48134e-24
4.7348e-20
7.83278e-16
1.42549e-11
1.13684e-06
2.48537e-24
4.74095e-20
7.84046e-16
1.42597e-11
1.13652e-06
2.49434e-24
4.75485e-20
7.85786e-16
1.42649e-11
1.13505e-06
2.49211e-24
4.75086e-20
7.8514e-16
1.42538e-11
1.1346e-06
2.48544e-24
4.73926e-20
7.83306e-16
1.42224e-11
1.1333e-06
2.48414e-24
4.73695e-20
7.82932e-16
1.4216e-11
1.13303e-06
2.48102e-24
4.7315e-20
7.82068e-16
1.42012e-11
1.13241e-06
2.48052e-24
4.73059e-20
7.8192e-16
1.41986e-11
1.1323e-06
2.47968e-24
4.72913e-20
7.81685e-16
1.41945e-11
1.13212e-06
2.47968e-24
4.72913e-20
7.81685e-16
1.41945e-11
1.13212e-06
2.48052e-24
4.73059e-20
7.8192e-16
1.41986e-11
1.1323e-06
2.48102e-24
4.7315e-20
7.82068e-16
1.42012e-11
1.13241e-06
2.48414e-24
4.73695e-20
7.82932e-16
1.4216e-11
1.13303e-06
2.48544e-24
4.73926e-20
7.83306e-16
1.42224e-11
1.1333e-06
2.49211e-24
4.75086e-20
7.8514e-16
1.42538e-11
1.1346e-06
2.49434e-24
4.75485e-20
7.85786e-16
1.42649e-11
1.13505e-06
2.48537e-24
4.74095e-20
7.84046e-16
1.42597e-11
1.13652e-06
2.48134e-24
4.7348e-20
7.83278e-16
1.42549e-11
1.13684e-06
2.15932e-24
4.20818e-20
7.08126e-16
1.33785e-11
1.12822e-06
2.15924e-24
4.20696e-20
7.10353e-16
1.39602e-11
1.12552e-06
2.48123e-24
4.73332e-20
7.85413e-16
1.48308e-11
1.13415e-06
2.48528e-24
4.73948e-20
7.86181e-16
1.48352e-11
1.13383e-06
2.49425e-24
4.75338e-20
7.87906e-16
1.48382e-11
1.13238e-06
2.49202e-24
4.7494e-20
7.87258e-16
1.48267e-11
1.13194e-06
2.48536e-24
4.73781e-20
7.85418e-16
1.47943e-11
1.13065e-06
2.48405e-24
4.73549e-20
7.85043e-16
1.47876e-11
1.13039e-06
2.48093e-24
4.73005e-20
7.84176e-16
1.47723e-11
1.12977e-06
2.48043e-24
4.72914e-20
7.84028e-16
1.47696e-11
1.12966e-06
2.47959e-24
4.72767e-20
7.83792e-16
1.47653e-11
1.12948e-06
2.47959e-24
4.72767e-20
7.83792e-16
1.47653e-11
1.12948e-06
2.48043e-24
4.72914e-20
7.84028e-16
1.47696e-11
1.12966e-06
2.48093e-24
4.73005e-20
7.84176e-16
1.47723e-11
1.12977e-06
2.48405e-24
4.73549e-20
7.85043e-16
1.47876e-11
1.13039e-06
2.48536e-24
4.73781e-20
7.85418e-16
1.47943e-11
1.13065e-06
2.49202e-24
4.7494e-20
7.87258e-16
1.48267e-11
1.13194e-06
2.49425e-24
4.75338e-20
7.87906e-16
1.48382e-11
1.13238e-06
2.48528e-24
4.73948e-20
7.86181e-16
1.48352e-11
1.13383e-06
2.48123e-24
4.73332e-20
7.85413e-16
1.48308e-11
1.13415e-06
2.15924e-24
4.20696e-20
7.10353e-16
1.39602e-11
1.12552e-06
2.15916e-24
4.2058e-20
7.12916e-16
1.45395e-11
1.12289e-06
2.48112e-24
4.73187e-20
7.87873e-16
1.54042e-11
1.13152e-06
2.48518e-24
4.73806e-20
7.88641e-16
1.54082e-11
1.13121e-06
2.49416e-24
4.75195e-20
7.90349e-16
1.54091e-11
1.12979e-06
2.49192e-24
4.74797e-20
7.89699e-16
1.53973e-11
1.12935e-06
2.48526e-24
4.73638e-20
7.87852e-16
1.53637e-11
1.12807e-06
2.48395e-24
4.73407e-20
7.87476e-16
1.53569e-11
1.12781e-06
2.48084e-24
4.72863e-20
7.86606e-16
1.5341e-11
1.1272e-06
2.48033e-24
4.72772e-20
7.86457e-16
1.53382e-11
1.12709e-06
2.4795e-24
4.72626e-20
7.8622e-16
1.53338e-11
1.12691e-06
2.4795e-24
4.72626e-20
7.8622e-16
1.53338e-11
1.12691e-06
2.48033e-24
4.72772e-20
7.86457e-16
1.53382e-11
1.12709e-06
2.48084e-24
4.72863e-20
7.86606e-16
1.5341e-11
1.1272e-06
2.48395e-24
4.73407e-20
7.87476e-16
1.53569e-11
1.12781e-06
2.48526e-24
4.73638e-20
7.87852e-16
1.53637e-11
1.12807e-06
2.49192e-24
4.74797e-20
7.89699e-16
1.53973e-11
1.12935e-06
2.49415e-24
4.75195e-20
7.90349e-16
1.54091e-11
1.12979e-06
2.48518e-24
4.73806e-20
7.88641e-16
1.54082e-11
1.13121e-06
2.48112e-24
4.73187e-20
7.87873e-16
1.54042e-11
1.13152e-06
2.15916e-24
4.2058e-20
7.12916e-16
1.45395e-11
1.12289e-06
2.15906e-24
4.20471e-20
7.15814e-16
1.51163e-11
1.12032e-06
2.481e-24
4.73048e-20
7.90659e-16
1.59751e-11
1.12896e-06
2.48508e-24
4.73669e-20
7.91426e-16
1.59787e-11
1.12866e-06
2.49405e-24
4.75057e-20
7.93115e-16
1.59775e-11
1.12725e-06
2.49182e-24
4.7466e-20
7.92462e-16
1.59653e-11
1.12682e-06
2.48515e-24
4.73501e-20
7.90607e-16
1.59307e-11
1.12555e-06
2.48385e-24
4.7327e-20
7.9023e-16
1.59236e-11
1.1253e-06
2.48073e-24
4.72726e-20
7.89356e-16
1.59073e-11
1.12469e-06
2.48023e-24
4.72636e-20
7.89207e-16
1.59044e-11
1.12458e-06
2.47939e-24
4.72489e-20
7.88969e-16
1.58998e-11
1.12441e-06
2.47939e-24
4.72489e-20
7.88969e-16
1.58998e-11
1.12441e-06
2.48023e-24
4.72636e-20
7.89207e-16
1.59044e-11
1.12458e-06
2.48073e-24
4.72726e-20
7.89356e-16
1.59073e-11
1.12469e-06
2.48385e-24
4.7327e-20
7.9023e-16
1.59236e-11
1.1253e-06
2.48515e-24
4.73501e-20
7.90607e-16
1.59307e-11
1.12555e-06
2.49181e-24
4.7466e-20
7.92462e-16
1.59653e-11
1.12682e-06
2.49405e-24
4.75057e-20
7.93115e-16
1.59775e-11
1.12725e-06
2.48508e-24
4.73669e-20
7.91426e-16
1.59787e-11
1.12866e-06
2.481e-24
4.73048e-20
7.90659e-16
1.59751e-11
1.12896e-06
2.15906e-24
4.20471e-20
7.15814e-16
1.51163e-11
1.12032e-06
2.15897e-24
4.20372e-20
7.19045e-16
1.56906e-11
1.11781e-06
2.48087e-24
4.72917e-20
7.93768e-16
1.65434e-11
1.12646e-06
2.48496e-24
4.7354e-20
7.94534e-16
1.65466e-11
1.12616e-06
2.49394e-24
4.74927e-20
7.96202e-16
1.65433e-11
1.12478e-06
2.4917e-24
4.7453e-20
7.95547e-16
1.65308e-11
1.12434e-06
2.48504e-24
4.73373e-20
7.93683e-16
1.64951e-11
1.12309e-06
2.48374e-24
4.73142e-20
7.93304e-16
1.64879e-11
1.12284e-06
2.48062e-24
4.72598e-20
7.92426e-16
1.64709e-11
1.12224e-06
2.48011e-24
4.72508e-20
7.92276e-16
1.6468e-11
1.12213e-06
2.47928e-24
4.72361e-20
7.92036e-16
1.64633e-11
1.12196e-06
2.47928e-24
4.72361e-20
7.92036e-16
1.64633e-11
1.12196e-06
2.48011e-24
4.72508e-20
7.92276e-16
1.6468e-11
1.12213e-06
2.48062e-24
4.72598e-20
7.92425e-16
1.64709e-11
1.12224e-06
2.48374e-24
4.73142e-20
7.93304e-16
1.64879e-11
1.12284e-06
2.48504e-24
4.73373e-20
7.93683e-16
1.64951e-11
1.12309e-06
2.4917e-24
4.7453e-20
7.95547e-16
1.65308e-11
1.12434e-06
2.49394e-24
4.74927e-20
7.96202e-16
1.65433e-11
1.12478e-06
2.48496e-24
4.7354e-20
7.94534e-16
1.65466e-11
1.12616e-06
2.48087e-24
4.72917e-20
7.93767e-16
1.65434e-11
1.12646e-06
2.15897e-24
4.20372e-20
7.19045e-16
1.56906e-11
1.11781e-06
2.15887e-24
4.20286e-20
7.2261e-16
1.62621e-11
1.11536e-06
2.48074e-24
4.72797e-20
7.97199e-16
1.71089e-11
1.12402e-06
2.48485e-24
4.73422e-20
7.97964e-16
1.71118e-11
1.12372e-06
2.49382e-24
4.74808e-20
7.99608e-16
1.71065e-11
1.12236e-06
2.49158e-24
4.74411e-20
7.98951e-16
1.70937e-11
1.12192e-06
2.48492e-24
4.73254e-20
7.97077e-16
1.70568e-11
1.12068e-06
2.48362e-24
4.73023e-20
7.96696e-16
1.70494e-11
1.12043e-06
2.4805e-24
4.7248e-20
7.95813e-16
1.7032e-11
1.11984e-06
2.48e-24
4.7239e-20
7.95662e-16
1.70289e-11
1.11973e-06
2.47916e-24
4.72243e-20
7.95422e-16
1.70241e-11
1.11956e-06
2.47916e-24
4.72243e-20
7.95422e-16
1.70241e-11
1.11956e-06
2.48e-24
4.7239e-20
7.95662e-16
1.70289e-11
1.11973e-06
2.4805e-24
4.7248e-20
7.95813e-16
1.7032e-11
1.11984e-06
2.48362e-24
4.73023e-20
7.96696e-16
1.70494e-11
1.12043e-06
2.48492e-24
4.73254e-20
7.97077e-16
1.70568e-11
1.12068e-06
2.49158e-24
4.74411e-20
7.98951e-16
1.70937e-11
1.12192e-06
2.49382e-24
4.74808e-20
7.99608e-16
1.71065e-11
1.12236e-06
2.48484e-24
4.73421e-20
7.97964e-16
1.71118e-11
1.12372e-06
2.48073e-24
4.72797e-20
7.97198e-16
1.71089e-11
1.12402e-06
2.15887e-24
4.20286e-20
7.2261e-16
1.62621e-11
1.11536e-06
2.15876e-24
4.20216e-20
7.26505e-16
1.6831e-11
1.11296e-06
2.48059e-24
4.72689e-20
8.0095e-16
1.76717e-11
1.12161e-06
2.48472e-24
4.73316e-20
8.01714e-16
1.76742e-11
1.12132e-06
2.49369e-24
4.74702e-20
8.03334e-16
1.76669e-11
1.11997e-06
2.49146e-24
4.74305e-20
8.02673e-16
1.76537e-11
1.11955e-06
2.4848e-24
4.73149e-20
8.00788e-16
1.76158e-11
1.11832e-06
2.4835e-24
4.72918e-20
8.00405e-16
1.76082e-11
1.11807e-06
2.48038e-24
4.72375e-20
7.99517e-16
1.75903e-11
1.11748e-06
2.47988e-24
4.72284e-20
7.99366e-16
1.75871e-11
1.11737e-06
2.47904e-24
4.72138e-20
7.99123e-16
1.75821e-11
1.1172e-06
2.47904e-24
4.72138e-20
7.99123e-16
1.75821e-11
1.1172e-06
2.47988e-24
4.72284e-20
7.99366e-16
1.75871e-11
1.11737e-06
2.48038e-24
4.72375e-20
7.99517e-16
1.75903e-11
1.11748e-06
2.4835e-24
4.72918e-20
8.00405e-16
1.76082e-11
1.11807e-06
2.4848e-24
4.73149e-20
8.00788e-16
1.76158e-11
1.11832e-06
2.49146e-24
4.74305e-20
8.02673e-16
1.76537e-11
1.11955e-06
2.49369e-24
4.74702e-20
8.03334e-16
1.76669e-11
1.11997e-06
2.48472e-24
4.73316e-20
8.01714e-16
1.76742e-11
1.12132e-06
2.48059e-24
4.72689e-20
8.0095e-16
1.76717e-11
1.12161e-06
2.15876e-24
4.20216e-20
7.26505e-16
1.68309e-11
1.11296e-06
2.15866e-24
4.20163e-20
7.3073e-16
1.73969e-11
1.11055e-06
2.48045e-24
4.72597e-20
8.05021e-16
1.82315e-11
1.11921e-06
2.48459e-24
4.73226e-20
8.05783e-16
1.82336e-11
1.11893e-06
2.49357e-24
4.74611e-20
8.07376e-16
1.82243e-11
1.1176e-06
2.49133e-24
4.74214e-20
8.06711e-16
1.82108e-11
1.11717e-06
2.48468e-24
4.73058e-20
8.04814e-16
1.81719e-11
1.11596e-06
2.48337e-24
4.72827e-20
8.0443e-16
1.81641e-11
1.11571e-06
2.48026e-24
4.72284e-20
8.03536e-16
1.81457e-11
1.11512e-06
2.47975e-24
4.72194e-20
8.03384e-16
1.81425e-11
1.11502e-06
2.47892e-24
4.72048e-20
8.0314e-16
1.81373e-11
1.11485e-06
2.47892e-24
4.72048e-20
8.0314e-16
1.81373e-11
1.11485e-06
2.47975e-24
4.72194e-20
8.03384e-16
1.81425e-11
1.11502e-06
2.48026e-24
4.72284e-20
8.03536e-16
1.81457e-11
1.11512e-06
2.48337e-24
4.72827e-20
8.0443e-16
1.81641e-11
1.11571e-06
2.48468e-24
4.73058e-20
8.04814e-16
1.81719e-11
1.11596e-06
2.49133e-24
4.74214e-20
8.06711e-16
1.82108e-11
1.11717e-06
2.49357e-24
4.74611e-20
8.07375e-16
1.82243e-11
1.1176e-06
2.48459e-24
4.73226e-20
8.05783e-16
1.82336e-11
1.11893e-06
2.48045e-24
4.72597e-20
8.05021e-16
1.82315e-11
1.11921e-06
2.15866e-24
4.20163e-20
7.3073e-16
1.73969e-11
1.11055e-06
0.00237312
0.000732083
4.16806e-05
5.20527e-07
1.10657e-09
1.95649e-12
1.56951e-12
1.5801e-12
1.58243e-12
1.58287e-12
1.58302e-12
1.58392e-12
1.58833e-12
1.59352e-12
1.63555e-12
1.6707e-12
2.03546e-12
2.22973e-12
7.11147e-12
8.29754e-12
0.00253137
0.00078375
4.54292e-05
5.82147e-07
1.28301e-09
2.05322e-12
1.56916e-12
1.58001e-12
1.58239e-12
1.58284e-12
1.58297e-12
1.5837e-12
1.58821e-12
1.59349e-12
1.63627e-12
1.67185e-12
2.04156e-12
2.23715e-12
7.17665e-12
8.37728e-12
0.00253169
0.000783553
4.53787e-05
5.81184e-07
1.28005e-09
2.05169e-12
1.56916e-12
1.58001e-12
1.58239e-12
1.58284e-12
1.58297e-12
1.58372e-12
1.58822e-12
1.59351e-12
1.6363e-12
1.67189e-12
2.04168e-12
2.23727e-12
7.17731e-12
8.37794e-12
0.00253334
0.000782156
4.50519e-05
5.74738e-07
1.26006e-09
2.04118e-12
1.56914e-12
1.58001e-12
1.58239e-12
1.58285e-12
1.58298e-12
1.58378e-12
1.5883e-12
1.59359e-12
1.63644e-12
1.67205e-12
2.04208e-12
2.2377e-12
7.1794e-12
8.37978e-12
0.00253115
0.000781287
4.49711e-05
5.7337e-07
1.25594e-09
2.03893e-12
1.56914e-12
1.58001e-12
1.58239e-12
1.58285e-12
1.58298e-12
1.58378e-12
1.5883e-12
1.59359e-12
1.63644e-12
1.67206e-12
2.0421e-12
2.23772e-12
7.17945e-12
8.37981e-12
0.00252571
0.000778719
4.47112e-05
5.68895e-07
1.24259e-09
2.03173e-12
1.56915e-12
1.58001e-12
1.58239e-12
1.58285e-12
1.58298e-12
1.58378e-12
1.5883e-12
1.5936e-12
1.63645e-12
1.67207e-12
2.04212e-12
2.23774e-12
7.17953e-12
8.37986e-12
0.00252445
0.000778225
4.46666e-05
5.68152e-07
1.24036e-09
2.03051e-12
1.56915e-12
1.58001e-12
1.58239e-12
1.58285e-12
1.58298e-12
1.58379e-12
1.5883e-12
1.5936e-12
1.63645e-12
1.67207e-12
2.04212e-12
2.23774e-12
7.17953e-12
8.37987e-12
0.00252183
0.000777024
4.45481e-05
5.66141e-07
1.23439e-09
2.02729e-12
1.56915e-12
1.58001e-12
1.58239e-12
1.58285e-12
1.58298e-12
1.58379e-12
1.5883e-12
1.5936e-12
1.63645e-12
1.67207e-12
2.04212e-12
2.23774e-12
7.17954e-12
8.37987e-12
0.00252131
0.000776821
4.45298e-05
5.65837e-07
1.23348e-09
2.02679e-12
1.56915e-12
1.58001e-12
1.58239e-12
1.58285e-12
1.58298e-12
1.58379e-12
1.5883e-12
1.5936e-12
1.63645e-12
1.67207e-12
2.04212e-12
2.23774e-12
7.17954e-12
8.37987e-12
0.00252057
0.000776482
4.44963e-05
5.65271e-07
1.2318e-09
2.02589e-12
1.56915e-12
1.58001e-12
1.58239e-12
1.58285e-12
1.58298e-12
1.58378e-12
1.5883e-12
1.5936e-12
1.63645e-12
1.67207e-12
2.04212e-12
2.23774e-12
7.17953e-12
8.37986e-12
0.00252057
0.000776482
4.44963e-05
5.65271e-07
1.2318e-09
2.02589e-12
1.56915e-12
1.58001e-12
1.58239e-12
1.58285e-12
1.58298e-12
1.58378e-12
1.5883e-12
1.5936e-12
1.63645e-12
1.67207e-12
2.04212e-12
2.23774e-12
7.17953e-12
8.37986e-12
0.00252131
0.000776821
4.45298e-05
5.65837e-07
1.23348e-09
2.02679e-12
1.56915e-12
1.58001e-12
1.58239e-12
1.58285e-12
1.58298e-12
1.58379e-12
1.5883e-12
1.5936e-12
1.63645e-12
1.67207e-12
2.04212e-12
2.23774e-12
7.17954e-12
8.37987e-12
0.00252183
0.000777024
4.45481e-05
5.66141e-07
1.23439e-09
2.02729e-12
1.56915e-12
1.58001e-12
1.58239e-12
1.58285e-12
1.58298e-12
1.58379e-12
1.5883e-12
1.5936e-12
1.63645e-12
1.67207e-12
2.04212e-12
2.23774e-12
7.17954e-12
8.37987e-12
0.00252445
0.000778225
4.46666e-05
5.68152e-07
1.24036e-09
2.03051e-12
1.56915e-12
1.58001e-12
1.58239e-12
1.58285e-12
1.58298e-12
1.58379e-12
1.5883e-12
1.5936e-12
1.63645e-12
1.67207e-12
2.04212e-12
2.23774e-12
7.17953e-12
8.37987e-12
0.00252571
0.000778719
4.47112e-05
5.68895e-07
1.24259e-09
2.03173e-12
1.56915e-12
1.58001e-12
1.58239e-12
1.58285e-12
1.58298e-12
1.58378e-12
1.5883e-12
1.5936e-12
1.63645e-12
1.67207e-12
2.04212e-12
2.23774e-12
7.17953e-12
8.37986e-12
0.00253115
0.000781287
4.49711e-05
5.7337e-07
1.25594e-09
2.03893e-12
1.56914e-12
1.58001e-12
1.58239e-12
1.58285e-12
1.58298e-12
1.58378e-12
1.5883e-12
1.59359e-12
1.63644e-12
1.67206e-12
2.0421e-12
2.23772e-12
7.17945e-12
8.37981e-12
0.00253334
0.000782156
4.50519e-05
5.74738e-07
1.26006e-09
2.04118e-12
1.56914e-12
1.58001e-12
1.58239e-12
1.58285e-12
1.58298e-12
1.58378e-12
1.5883e-12
1.59359e-12
1.63644e-12
1.67205e-12
2.04208e-12
2.2377e-12
7.1794e-12
8.37978e-12
0.00253169
0.000783553
4.53787e-05
5.81184e-07
1.28005e-09
2.05169e-12
1.56916e-12
1.58001e-12
1.58239e-12
1.58284e-12
1.58297e-12
1.58372e-12
1.58822e-12
1.59351e-12
1.6363e-12
1.67189e-12
2.04168e-12
2.23727e-12
7.17731e-12
8.37794e-12
0.00253137
0.00078375
4.54292e-05
5.82147e-07
1.28301e-09
2.05322e-12
1.56916e-12
1.58001e-12
1.58239e-12
1.58284e-12
1.58297e-12
1.5837e-12
1.58821e-12
1.59349e-12
1.63627e-12
1.67185e-12
2.04156e-12
2.23715e-12
7.17665e-12
8.37728e-12
0.00237312
0.000732083
4.16806e-05
5.20527e-07
1.10657e-09
1.95649e-12
1.56951e-12
1.5801e-12
1.58243e-12
1.58287e-12
1.58302e-12
1.58392e-12
1.58833e-12
1.59352e-12
1.63555e-12
1.6707e-12
2.03546e-12
2.22973e-12
7.11147e-12
8.29754e-12
0.0243198
0.00966662
0.00080407
1.29113e-05
3.39021e-08
6.6736e-11
5.20426e-11
5.24313e-11
5.25169e-11
5.25334e-11
5.2539e-11
5.25695e-11
5.27175e-11
5.28911e-11
5.42935e-11
5.54589e-11
6.75514e-11
7.39294e-11
2.33828e-10
2.71855e-10
0.0254891
0.0101988
0.000864592
1.42382e-05
3.86429e-08
6.98745e-11
5.20299e-11
5.24277e-11
5.25155e-11
5.25324e-11
5.25373e-11
5.25622e-11
5.27136e-11
5.28903e-11
5.43178e-11
5.54976e-11
6.77553e-11
7.41763e-11
2.35967e-10
2.74462e-10
0.0254892
0.0101956
0.000863537
1.42124e-05
3.8547e-08
6.98158e-11
5.20296e-11
5.24277e-11
5.25155e-11
5.25324e-11
5.25374e-11
5.25626e-11
5.27142e-11
5.28909e-11
5.4319e-11
5.5499e-11
6.77592e-11
7.41804e-11
2.35989e-10
2.74483e-10
0.025503
0.0101798
0.000857293
1.40509e-05
3.79328e-08
6.94293e-11
5.20292e-11
5.24277e-11
5.25157e-11