/*--------------------------------*- C++ -*----------------------------------*\
  =========                 |
  \\      /  F ield         | OpenFOAM: The Open Source CFD Toolbox
   \\    /   O peration     | Website:  https://openfoam.org
    \\  /    A nd           | Version:  8
     \\/     M anipulation  |
\*---------------------------------------------------------------------------*/
FoamFile
{
    version     2.0;
    format      ascii;
    class       volScalarField;
    location    "4";
    object      p;
}
// * * * * * * * * * * * * * * * * * * * * * * * * * * * * * * * * * * * * * //

dimensions      [0 2 -2 0 0 0 0];

internalField   nonuniform List<scalar> 
180000
(
0.000900696
0.000839801
0.000878032
0.00074806
0.000816846
0.000886144
0.00082548
0.000863428
0.000734782
0.000802425
0.000885321
0.000824694
0.000862604
0.000734094
0.000801649
0.00088102
0.000820559
0.000858287
0.000730445
0.000797598
0.000880447
0.000820014
0.00085771
0.000729968
0.000797057
0.000878472
0.000818127
0.000855722
0.000728311
0.000795196
0.00087815
0.00081782
0.000855397
0.000728042
0.00079489
0.000877248
0.000816961
0.000854487
0.000727286
0.000794038
0.00087711
0.000816829
0.000854347
0.00072717
0.000793906
0.000876848
0.00081658
0.000854084
0.000726951
0.000793659
0.000876848
0.00081658
0.000854084
0.000726951
0.000793659
0.00087711
0.000816829
0.000854347
0.00072717
0.000793906
0.000877248
0.000816961
0.000854487
0.000727286
0.000794038
0.00087815
0.00081782
0.000855397
0.000728042
0.00079489
0.000878472
0.000818127
0.000855722
0.000728311
0.000795196
0.000880447
0.000820014
0.00085771
0.000729968
0.000797057
0.00088102
0.000820559
0.000858287
0.000730445
0.000797598
0.000885321
0.000824694
0.000862604
0.000734094
0.000801649
0.000886144
0.00082548
0.000863428
0.000734782
0.000802425
0.000900696
0.000839801
0.000878032
0.00074806
0.000816846
0.000734848
0.000706637
0.000725283
0.000656326
0.000695487
0.000728497
0.000699493
0.000718569
0.000648525
0.000687955
0.000728131
0.000699093
0.000718182
0.000648114
0.000687542
0.00072617
0.000696948
0.000716112
0.000645897
0.000685346
0.000725909
0.000696666
0.000715836
0.000645607
0.000685053
0.000725
0.000695681
0.000714875
0.000644595
0.000684037
0.000724853
0.000695521
0.000714718
0.000644431
0.000683871
0.000724436
0.000695071
0.000714276
0.000643969
0.000683404
0.000724372
0.000695002
0.000714208
0.000643898
0.000683332
0.000724251
0.000694871
0.00071408
0.000643764
0.000683197
0.000724251
0.000694871
0.00071408
0.000643764
0.000683197
0.000724372
0.000695002
0.000714208
0.000643898
0.000683332
0.000724436
0.000695071
0.000714276
0.000643969
0.000683404
0.000724853
0.000695521
0.000714718
0.000644431
0.000683871
0.000725
0.000695681
0.000714875
0.000644595
0.000684037
0.000725909
0.000696666
0.000715836
0.000645607
0.000685053
0.00072617
0.000696948
0.000716112
0.000645897
0.000685346
0.000728131
0.000699093
0.000718182
0.000648114
0.000687542
0.000728497
0.000699493
0.000718569
0.000648525
0.000687955
0.000734848
0.000706637
0.000725283
0.000656326
0.000695487
0.000527491
0.000505081
0.000520345
0.000466442
0.000499388
0.000522388
0.000499616
0.000515061
0.000460771
0.000493694
0.000522093
0.00049931
0.000514756
0.00046047
0.00049338
0.000520488
0.000497633
0.000513094
0.000458815
0.000491676
0.000520277
0.000497415
0.000512874
0.000458601
0.000491451
0.000519534
0.000496646
0.000512104
0.000457846
0.000490664
0.000519415
0.000496522
0.000511979
0.000457725
0.000490536
0.000519075
0.00049617
0.000511626
0.000457379
0.000490175
0.000519023
0.000496117
0.000511572
0.000457327
0.000490119
0.000518925
0.000496015
0.000511469
0.000457227
0.000490015
0.000518925
0.000496015
0.000511469
0.000457227
0.000490015
0.000519023
0.000496117
0.000511572
0.000457327
0.000490119
0.000519075
0.00049617
0.000511626
0.000457379
0.000490175
0.000519415
0.000496522
0.000511979
0.000457725
0.000490536
0.000519534
0.000496646
0.000512104
0.000457846
0.000490664
0.000520277
0.000497415
0.000512874
0.000458601
0.000491451
0.000520488
0.000497633
0.000513094
0.000458815
0.000491676
0.000522093
0.00049931
0.000514756
0.00046047
0.00049338
0.000522388
0.000499616
0.000515061
0.000460771
0.000493694
0.000527491
0.000505081
0.000520345
0.000466442
0.000499388
0.000492955
0.000466763
0.000484704
0.000424069
0.00046333
0.000486871
0.000460603
0.00047854
0.000418113
0.000457039
0.000486518
0.000460256
0.000478184
0.000417795
0.000456689
0.000484599
0.000458354
0.000476238
0.000416035
0.000454786
0.000484348
0.000458107
0.000475982
0.000415808
0.000454535
0.000483463
0.000457237
0.000475083
0.000415007
0.000453658
0.000483321
0.000457097
0.000474937
0.000414878
0.000453515
0.000482917
0.0004567
0.000474525
0.000414512
0.000453113
0.000482855
0.00045664
0.000474463
0.000414457
0.000453051
0.000482738
0.000456525
0.000474343
0.000414351
0.000452935
0.000482738
0.000456525
0.000474343
0.000414351
0.000452935
0.000482855
0.00045664
0.000474463
0.000414457
0.000453051
0.000482917
0.0004567
0.000474525
0.000414512
0.000453113
0.000483321
0.000457097
0.000474937
0.000414878
0.000453515
0.000483463
0.000457237
0.000475083
0.000415007
0.000453658
0.000484348
0.000458107
0.000475982
0.000415808
0.000454535
0.000484599
0.000458354
0.000476238
0.000416035
0.000454786
0.000486518
0.000460256
0.000478184
0.000417795
0.000456689
0.000486871
0.000460603
0.00047854
0.000418113
0.000457039
0.000492955
0.000466763
0.000484704
0.000424069
0.00046333
0.000515933
0.000488245
0.000507558
0.000442767
0.000487618
0.000509524
0.000481751
0.000501064
0.000436499
0.00048101
0.000509148
0.000481382
0.000500684
0.000436161
0.000480637
0.000507095
0.000479346
0.000498602
0.000434279
0.000478599
0.000506826
0.000479083
0.000498329
0.000434037
0.000478331
0.00050588
0.000478151
0.000497366
0.00043318
0.000477391
0.000505728
0.000478002
0.00049721
0.000433043
0.000477238
0.000505295
0.000477576
0.00049677
0.000432651
0.000476807
0.00050523
0.000477512
0.000496703
0.000432592
0.000476742
0.000505104
0.000477389
0.000496575
0.000432478
0.000476616
0.000505104
0.000477389
0.000496575
0.000432478
0.000476616
0.00050523
0.000477512
0.000496703
0.000432592
0.000476742
0.000505295
0.000477576
0.00049677
0.000432651
0.000476807
0.000505728
0.000478002
0.00049721
0.000433043
0.000477238
0.00050588
0.000478151
0.000497366
0.00043318
0.000477391
0.000506826
0.000479083
0.000498329
0.000434037
0.000478331
0.000507095
0.000479346
0.000498602
0.000434279
0.000478599
0.000509148
0.000481382
0.000500684
0.000436161
0.000480637
0.000509524
0.000481751
0.000501064
0.000436499
0.00048101
0.000515933
0.000488245
0.000507558
0.000442767
0.000487618
0.000528727
0.000501611
0.000521012
0.000456291
0.000504759
0.000522501
0.000495257
0.000514688
0.000450098
0.000498294
0.000522131
0.000494891
0.000514314
0.000449759
0.000497922
0.000520096
0.000492859
0.000512244
0.000447862
0.000495878
0.00051983
0.000492596
0.000511973
0.000447619
0.00049561
0.00051889
0.000491665
0.000511015
0.000446753
0.000494666
0.00051874
0.000491516
0.000510861
0.000446615
0.000494513
0.00051831
0.00049109
0.000510421
0.000446219
0.00049408
0.000518245
0.000491027
0.000510355
0.00044616
0.000494014
0.00051812
0.000490903
0.000510228
0.000446045
0.000493888
0.00051812
0.000490903
0.000510228
0.000446045
0.000493888
0.000518245
0.000491027
0.000510355
0.00044616
0.000494014
0.00051831
0.00049109
0.000510421
0.000446219
0.00049408
0.00051874
0.000491516
0.000510861
0.000446615
0.000494513
0.00051889
0.000491665
0.000511015
0.000446753
0.000494666
0.00051983
0.000492596
0.000511973
0.000447619
0.00049561
0.000520096
0.000492859
0.000512244
0.000447862
0.000495878
0.000522131
0.000494891
0.000514314
0.000449759
0.000497922
0.000522501
0.000495257
0.000514688
0.000450098
0.000498294
0.000528727
0.000501611
0.000521012
0.000456291
0.000504759
0.000528658
0.000502291
0.000521647
0.000457797
0.000509548
0.000522645
0.000496143
0.000515537
0.000451785
0.000503299
0.000522284
0.000495785
0.000515171
0.000451453
0.000502935
0.000520279
0.000493779
0.000513131
0.000449572
0.000500908
0.000520018
0.000493521
0.000512865
0.000449331
0.000500643
0.000519091
0.0004926
0.000511919
0.000448472
0.000499706
0.000518943
0.000492454
0.000511767
0.000448336
0.000499555
0.000518518
0.000492033
0.000511334
0.000447943
0.000499125
0.000518455
0.00049197
0.000511268
0.000447884
0.00049906
0.000518332
0.000491848
0.000511143
0.00044777
0.000498935
0.000518332
0.000491848
0.000511143
0.00044777
0.000498935
0.000518455
0.00049197
0.000511268
0.000447884
0.00049906
0.000518518
0.000492033
0.000511334
0.000447943
0.000499125
0.000518943
0.000492454
0.000511767
0.000448336
0.000499555
0.000519091
0.0004926
0.000511919
0.000448472
0.000499706
0.000520018
0.000493521
0.000512865
0.000449331
0.000500643
0.000520279
0.000493779
0.000513131
0.000449572
0.000500908
0.000522284
0.000495785
0.000515171
0.000451453
0.000502935
0.000522645
0.000496143
0.000515537
0.000451785
0.000503299
0.000528658
0.000502291
0.000521647
0.000457797
0.000509548
0.000526029
0.000500078
0.000519579
0.000456148
0.000511231
0.000520144
0.00049407
0.000513604
0.000450278
0.000505133
0.000519787
0.000493716
0.000513243
0.00044995
0.000504772
0.000517788
0.000491719
0.000511211
0.000448077
0.000502748
0.000517529
0.000491463
0.000510947
0.000447839
0.000502485
0.000516603
0.000490545
0.000510003
0.000446982
0.000501548
0.000516456
0.000490399
0.000509853
0.000446847
0.000501398
0.000516033
0.00048998
0.00050942
0.000446455
0.000500968
0.00051597
0.000489918
0.000509355
0.000446397
0.000500903
0.000515847
0.000489796
0.00050923
0.000446283
0.000500778
0.000515847
0.000489796
0.00050923
0.000446283
0.000500778
0.00051597
0.000489918
0.000509355
0.000446397
0.000500903
0.000516033
0.00048998
0.00050942
0.000446455
0.000500968
0.000516456
0.000490399
0.000509853
0.000446847
0.000501398
0.000516603
0.000490545
0.000510003
0.000446982
0.000501548
0.000517529
0.000491463
0.000510947
0.000447839
0.000502485
0.000517788
0.000491719
0.000511211
0.000448077
0.000502748
0.000519787
0.000493716
0.000513243
0.00044995
0.000504772
0.000520144
0.00049407
0.000513604
0.000450278
0.000505133
0.000526029
0.000500078
0.000519579
0.000456148
0.000511231
0.000524785
0.000499104
0.000518831
0.000455589
0.000513652
0.000518992
0.000493199
0.000512956
0.000449828
0.000507663
0.000518638
0.000492849
0.000512597
0.000449503
0.000507304
0.000516636
0.000490851
0.000510564
0.00044763
0.000505274
0.000516378
0.000490596
0.0005103
0.000447392
0.000505011
0.00051545
0.000489676
0.000509355
0.000446534
0.00050407
0.000515303
0.000489531
0.000509205
0.000446399
0.000503919
0.000514878
0.000489111
0.000508771
0.000446006
0.000503487
0.000514815
0.000489049
0.000508706
0.000445948
0.000503422
0.000514692
0.000488927
0.000508581
0.000445834
0.000503297
0.000514692
0.000488927
0.000508581
0.000445834
0.000503297
0.000514815
0.000489049
0.000508706
0.000445948
0.000503422
0.000514878
0.000489111
0.000508771
0.000446006
0.000503487
0.000515303
0.000489531
0.000509205
0.000446399
0.000503919
0.00051545
0.000489676
0.000509355
0.000446534
0.00050407
0.000516378
0.000490596
0.0005103
0.000447392
0.000505011
0.000516636
0.000490851
0.000510564
0.00044763
0.000505274
0.000518638
0.000492849
0.000512597
0.000449503
0.000507304
0.000518992
0.000493199
0.000512956
0.000449828
0.000507663
0.000524785
0.000499104
0.000518831
0.000455589
0.000513652
0.000524479
0.000499072
0.000519011
0.000456025
0.000516363
0.000518782
0.000493269
0.000513238
0.000450366
0.000510471
0.00051843
0.000492921
0.000512881
0.000450042
0.000510113
0.000516427
0.000490924
0.000510847
0.000448168
0.000508078
0.000516169
0.000490669
0.000510585
0.00044793
0.000507814
0.00051524
0.000489749
0.000509638
0.000447071
0.00050687
0.000515093
0.000489604
0.000509488
0.000446935
0.000506719
0.000514667
0.000489183
0.000509054
0.000446542
0.000506285
0.000514604
0.000489121
0.000508989
0.000446484
0.00050622
0.000514481
0.000488999
0.000508863
0.00044637
0.000506094
0.000514481
0.000488999
0.000508863
0.00044637
0.000506094
0.000514604
0.000489121
0.000508989
0.000446484
0.00050622
0.000514667
0.000489183
0.000509054
0.000446542
0.000506285
0.000515093
0.000489604
0.000509488
0.000446935
0.000506719
0.00051524
0.000489749
0.000509638
0.000447071
0.00050687
0.000516169
0.000490669
0.000510585
0.00044793
0.000507814
0.000516427
0.000490924
0.000510847
0.000448168
0.000508078
0.00051843
0.000492921
0.000512881
0.000450042
0.000510113
0.000518782
0.000493269
0.000513238
0.000450366
0.000510471
0.000524479
0.000499072
0.000519011
0.000456025
0.000516363
0.000524269
0.000499153
0.000519281
0.000456662
0.000518222
0.000518672
0.000493457
0.000513613
0.000451105
0.000512414
0.000518323
0.000493112
0.00051326
0.000450784
0.000512058
0.000516322
0.000491117
0.000511228
0.000448909
0.000510017
0.000516065
0.000490863
0.000510966
0.000448672
0.000509754
0.000515135
0.000489942
0.000510019
0.000447811
0.000508805
0.000514988
0.000489798
0.000509869
0.000447676
0.000508654
0.000514562
0.000489377
0.000509435
0.000447282
0.000508219
0.000514499
0.000489315
0.00050937
0.000447224
0.000508154
0.000514376
0.000489193
0.000509244
0.00044711
0.000508027
0.000514376
0.000489193
0.000509244
0.00044711
0.000508027
0.000514499
0.000489315
0.00050937
0.000447224
0.000508154
0.000514562
0.000489377
0.000509435
0.000447282
0.000508219
0.000514988
0.000489798
0.000509869
0.000447676
0.000508654
0.000515135
0.000489942
0.000510019
0.000447811
0.000508805
0.000516065
0.000490863
0.000510966
0.000448672
0.000509754
0.000516322
0.000491117
0.000511228
0.000448909
0.000510017
0.000518323
0.000493112
0.00051326
0.000450784
0.000512058
0.000518672
0.000493457
0.000513613
0.000451105
0.000512414
0.000524269
0.000499153
0.000519281
0.000456662
0.000518222
0.000523945
0.000499117
0.000519421
0.000457196
0.000517019
0.000518448
0.000493527
0.000513857
0.000451741
0.00051131
0.000518102
0.000493185
0.000513507
0.000451422
0.000510957
0.000516103
0.000491192
0.000511478
0.000449548
0.00050892
0.000515847
0.00049094
0.000511217
0.000449312
0.000508657
0.000514916
0.000490019
0.00051027
0.00044845
0.000507709
0.00051477
0.000489875
0.000510121
0.000448315
0.000507558
0.000514344
0.000489454
0.000509686
0.00044792
0.000507123
0.000514281
0.000489392
0.000509622
0.000447862
0.000507058
0.000514158
0.00048927
0.000509496
0.000447748
0.000506931
0.000514158
0.00048927
0.000509496
0.000447748
0.000506931
0.000514281
0.000489392
0.000509622
0.000447862
0.000507058
0.000514344
0.000489454
0.000509686
0.00044792
0.000507123
0.00051477
0.000489875
0.000510121
0.000448315
0.000507558
0.000514916
0.000490019
0.00051027
0.00044845
0.000507709
0.000515847
0.00049094
0.000511217
0.000449312
0.000508657
0.000516103
0.000491192
0.000511478
0.000449548
0.00050892
0.000518102
0.000493185
0.000513507
0.000451422
0.000510957
0.000518448
0.000493527
0.000513857
0.000451741
0.00051131
0.000523945
0.000499117
0.000519421
0.000457196
0.000517019
0.000523582
0.000499029
0.000519502
0.0004576
0.000514944
0.000518182
0.000493541
0.00051404
0.000452245
0.000509338
0.000517838
0.000493202
0.000513693
0.000451929
0.000508988
0.000515842
0.000491213
0.000511667
0.000450056
0.000506957
0.000515587
0.000490962
0.000511407
0.000449821
0.000506697
0.000514656
0.000490041
0.00051046
0.000448958
0.000505749
0.00051451
0.000489897
0.000510311
0.000448823
0.000505599
0.000514084
0.000489476
0.000509876
0.000448428
0.000505164
0.000514021
0.000489414
0.000509812
0.00044837
0.000505099
0.000513898
0.000489292
0.000509686
0.000448256
0.000504973
0.000513898
0.000489292
0.000509686
0.000448256
0.000504973
0.000514021
0.000489414
0.000509812
0.00044837
0.000505099
0.000514084
0.000489476
0.000509876
0.000448428
0.000505164
0.00051451
0.000489897
0.000510311
0.000448823
0.000505599
0.000514656
0.000490041
0.00051046
0.000448958
0.000505749
0.000515587
0.000490962
0.000511407
0.000449821
0.000506697
0.000515842
0.000491213
0.000511667
0.000450056
0.000506957
0.000517838
0.000493202
0.000513693
0.000451929
0.000508988
0.000518182
0.000493541
0.00051404
0.000452245
0.000509338
0.000523582
0.000499029
0.000519502
0.0004576
0.000514944
0.000523242
0.000498952
0.000519589
0.000457922
0.000513129
0.000517937
0.000493564
0.000514226
0.000452665
0.000507623
0.000517596
0.000493228
0.000513881
0.000452351
0.000507277
0.000515602
0.000491242
0.000511859
0.000450481
0.000505252
0.000515348
0.000490992
0.000511601
0.000450246
0.000504992
0.000514417
0.000490071
0.000510653
0.000449382
0.000504046
0.000514271
0.000489928
0.000510505
0.000449248
0.000503897
0.000513845
0.000489507
0.00051007
0.000448853
0.000503462
0.000513782
0.000489445
0.000510005
0.000448795
0.000503397
0.000513658
0.000489323
0.000509879
0.00044868
0.000503271
0.000513658
0.000489323
0.000509879
0.00044868
0.000503271
0.000513782
0.000489445
0.000510005
0.000448795
0.000503397
0.000513845
0.000489507
0.00051007
0.000448853
0.000503462
0.000514271
0.000489928
0.000510505
0.000449248
0.000503897
0.000514417
0.000490071
0.000510653
0.000449382
0.000504046
0.000515348
0.000490992
0.000511601
0.000450246
0.000504992
0.000515602
0.000491242
0.000511859
0.000450481
0.000505252
0.000517596
0.000493228
0.000513881
0.000452351
0.000507277
0.000517937
0.000493564
0.000514226
0.000452665
0.000507623
0.000523242
0.000498952
0.000519589
0.000457922
0.000513129
0.000522934
0.000498897
0.000519692
0.000458184
0.000511577
0.00051772
0.000493607
0.000514426
0.000453023
0.000506167
0.000517382
0.000493273
0.000514084
0.000452712
0.000505824
0.000515391
0.000491291
0.000512066
0.000450844
0.000503805
0.000515138
0.000491042
0.000511808
0.00045061
0.000503547
0.000514206
0.000490121
0.00051086
0.000449746
0.000502601
0.000514062
0.000489978
0.000510713
0.000449612
0.000502452
0.000513634
0.000489557
0.000510277
0.000449216
0.000502018
0.000513572
0.000489495
0.000510213
0.000449158
0.000501953
0.000513448
0.000489373
0.000510087
0.000449044
0.000501827
0.000513448
0.000489373
0.000510087
0.000449044
0.000501827
0.000513572
0.000489495
0.000510213
0.000449158
0.000501953
0.000513634
0.000489557
0.000510277
0.000449216
0.000502018
0.000514062
0.000489978
0.000510713
0.000449612
0.000502452
0.000514206
0.000490121
0.00051086
0.000449746
0.000502601
0.000515138
0.000491042
0.000511808
0.00045061
0.000503547
0.000515391
0.000491291
0.000512066
0.000450844
0.000503805
0.000517382
0.000493273
0.000514084
0.000452712
0.000505824
0.00051772
0.000493607
0.000514426
0.000453023
0.000506167
0.000522934
0.000498897
0.000519692
0.000458184
0.000511577
0.000522647
0.000498856
0.000519805
0.000458386
0.000510088
0.000517524
0.000493661
0.000514634
0.00045332
0.000504772
0.000517188
0.00049333
0.000514295
0.000453011
0.000504431
0.000515201
0.000491352
0.00051228
0.000451146
0.000502419
0.000514949
0.000491104
0.000512024
0.000450914
0.000502162
0.000514017
0.000490182
0.000511076
0.000450049
0.000501217
0.000513873
0.000490041
0.000510928
0.000449915
0.000501069
0.000513445
0.000489619
0.000510493
0.000449519
0.000500634
0.000513383
0.000489558
0.000510429
0.000449462
0.00050057
0.000513259
0.000489436
0.000510303
0.000449347
0.000500444
0.000513259
0.000489436
0.000510303
0.000449347
0.000500444
0.000513383
0.000489558
0.000510429
0.000449462
0.00050057
0.000513445
0.000489619
0.000510493
0.000449519
0.000500634
0.000513873
0.000490041
0.000510928
0.000449915
0.000501069
0.000514017
0.000490182
0.000511076
0.000450049
0.000501217
0.000514949
0.000491104
0.000512024
0.000450914
0.000502162
0.000515201
0.000491352
0.00051228
0.000451146
0.000502419
0.000517188
0.00049333
0.000514295
0.000453011
0.000504431
0.000517524
0.000493661
0.000514634
0.00045332
0.000504772
0.000522647
0.000498856
0.000519805
0.000458386
0.000510088
0.000522378
0.000498824
0.000519925
0.000458525
0.000508592
0.000517344
0.000493722
0.000514846
0.000453553
0.000503368
0.00051701
0.000493394
0.00051451
0.000453246
0.000503031
0.000515027
0.00049142
0.000512499
0.000451385
0.000501025
0.000514776
0.000491173
0.000512244
0.000451153
0.000500769
0.000513844
0.000490252
0.000511296
0.000450288
0.000499825
0.0005137
0.00049011
0.000511149
0.000450155
0.000499678
0.000513272
0.000489689
0.000510713
0.000449759
0.000499243
0.00051321
0.000489628
0.00051065
0.000449702
0.00049918
0.000513086
0.000489505
0.000510524
0.000449587
0.000499053
0.000513086
0.000489505
0.000510524
0.000449587
0.000499053
0.00051321
0.000489628
0.00051065
0.000449702
0.00049918
0.000513272
0.000489689
0.000510713
0.000449759
0.000499243
0.0005137
0.00049011
0.000511149
0.000450155
0.000499678
0.000513844
0.000490252
0.000511296
0.000450288
0.000499825
0.000514776
0.000491173
0.000512244
0.000451153
0.000500769
0.000515027
0.00049142
0.000512499
0.000451385
0.000501025
0.00051701
0.000493394
0.00051451
0.000453246
0.000503031
0.000517344
0.000493722
0.000514846
0.000453553
0.000503368
0.000522378
0.000498824
0.000519925
0.000458525
0.000508592
0.000522127
0.000498801
0.000520052
0.000458602
0.000507102
0.000517179
0.000493791
0.000515064
0.000453721
0.000501967
0.000516848
0.000493465
0.00051473
0.000453417
0.000501633
0.000514868
0.000491495
0.000512724
0.000451561
0.000499634
0.000514618
0.000491249
0.00051247
0.00045133
0.000499379
0.000513686
0.000490328
0.000511522
0.000450465
0.000498436
0.000513543
0.000490187
0.000511376
0.000450333
0.000498289
0.000513115
0.000489766
0.00051094
0.000449936
0.000497855
0.000513053
0.000489705
0.000510877
0.000449879
0.000497792
0.000512929
0.000489583
0.00051075
0.000449764
0.000497666
0.000512929
0.000489583
0.00051075
0.000449764
0.000497666
0.000513053
0.000489705
0.000510877
0.000449879
0.000497792
0.000513115
0.000489766
0.00051094
0.000449936
0.000497855
0.000513543
0.000490187
0.000511376
0.000450333
0.000498289
0.000513686
0.000490328
0.000511522
0.000450465
0.000498436
0.000514618
0.000491249
0.00051247
0.00045133
0.000499379
0.000514868
0.000491495
0.000512724
0.000451561
0.000499634
0.000516848
0.000493465
0.00051473
0.000453417
0.000501633
0.000517179
0.000493791
0.000515064
0.000453721
0.000501967
0.000522127
0.000498801
0.000520052
0.000458602
0.000507102
0.000521893
0.000498789
0.000520188
0.000458617
0.000505631
0.000517029
0.000493867
0.000515289
0.000453827
0.000500582
0.000516701
0.000493543
0.000514958
0.000453526
0.000500251
0.000514725
0.000491579
0.000512957
0.000451674
0.000498259
0.000514476
0.000491334
0.000512704
0.000451444
0.000498006
0.000513544
0.000490413
0.000511756
0.00045058
0.000497064
0.000513401
0.000490273
0.00051161
0.000450448
0.000496918
0.000512973
0.000489851
0.000511174
0.000450051
0.000496484
0.000512912
0.00048979
0.000511111
0.000449994
0.000496421
0.000512788
0.000489668
0.000510985
0.000449879
0.000496295
0.000512788
0.000489668
0.000510985
0.000449879
0.000496295
0.000512912
0.00048979
0.000511111
0.000449994
0.000496421
0.000512973
0.000489851
0.000511174
0.000450051
0.000496484
0.000513401
0.000490273
0.00051161
0.000450448
0.000496918
0.000513544
0.000490413
0.000511756
0.00045058
0.000497064
0.000514476
0.000491334
0.000512704
0.000451444
0.000498006
0.000514725
0.000491579
0.000512957
0.000451674
0.000498259
0.000516701
0.000493543
0.000514958
0.000453526
0.000500251
0.000517029
0.000493867
0.000515289
0.000453827
0.000500582
0.000521893
0.000498789
0.000520188
0.000458617
0.000505631
0.000521677
0.000498786
0.000520336
0.000458572
0.000504112
0.000516896
0.000493951
0.000515524
0.000453871
0.000499149
0.000516569
0.00049363
0.000515195
0.000453572
0.00049882
0.000514599
0.000491671
0.000513199
0.000451726
0.000496837
0.00051435
0.000491427
0.000512946
0.000451497
0.000496585
0.000513418
0.000490506
0.000511999
0.000450633
0.000495644
0.000513276
0.000490366
0.000511854
0.000450501
0.000495499
0.000512848
0.000489944
0.000511418
0.000450105
0.000495065
0.000512786
0.000489884
0.000511355
0.000450048
0.000495002
0.000512662
0.000489762
0.000511228
0.000449933
0.000494876
0.000512662
0.000489762
0.000511228
0.000449933
0.000494876
0.000512786
0.000489884
0.000511355
0.000450048
0.000495002
0.000512848
0.000489944
0.000511418
0.000450105
0.000495065
0.000513276
0.000490366
0.000511854
0.000450501
0.000495499
0.000513418
0.000490506
0.000511999
0.000450633
0.000495644
0.00051435
0.000491427
0.000512946
0.000451497
0.000496585
0.000514599
0.000491671
0.000513199
0.000451726
0.000496837
0.000516569
0.00049363
0.000515195
0.000453572
0.00049882
0.000516896
0.000493951
0.000515524
0.000453871
0.000499149
0.000521677
0.000498786
0.000520336
0.000458572
0.000504112
-1.62396e-05
1.57708e-05
2.814e-06
6.96603e-07
2.5093e-07
1.80716e-07
1.65298e-07
1.62496e-07
1.61807e-07
1.61662e-07
1.61615e-07
1.61593e-07
1.61495e-07
1.61386e-07
1.60519e-07
1.59851e-07
1.53415e-07
1.50644e-07
1.11916e-07
1.07812e-07
-1.63078e-05
1.57311e-05
2.82835e-06
7.01577e-07
2.52154e-07
1.81017e-07
1.65351e-07
1.62495e-07
1.6179e-07
1.61642e-07
1.61593e-07
1.61571e-07
1.61471e-07
1.61359e-07
1.60478e-07
1.59803e-07
1.53295e-07
1.50518e-07
1.11616e-07
1.076e-07
-1.63014e-05
1.57209e-05
2.82515e-06
7.01141e-07
2.52068e-07
1.81006e-07
1.65348e-07
1.62494e-07
1.6179e-07
1.61642e-07
1.61593e-07
1.61571e-07
1.61471e-07
1.61359e-07
1.60477e-07
1.59802e-07
1.53293e-07
1.50516e-07
1.11613e-07
1.07598e-07
-1.62717e-05
1.56683e-05
2.8089e-06
6.98968e-07
2.51645e-07
1.80951e-07
1.65336e-07
1.62492e-07
1.61788e-07
1.61641e-07
1.61592e-07
1.61569e-07
1.61469e-07
1.61357e-07
1.60475e-07
1.59799e-07
1.53286e-07
1.50509e-07
1.11601e-07
1.07592e-07
-1.62663e-05
1.56604e-05
2.80608e-06
6.98527e-07
2.51545e-07
1.80934e-07
1.65332e-07
1.62491e-07
1.61788e-07
1.6164e-07
1.61592e-07
1.61569e-07
1.61469e-07
1.61357e-07
1.60475e-07
1.59799e-07
1.53286e-07
1.50509e-07
1.11601e-07
1.07591e-07
-1.62495e-05
1.56349e-05
2.79735e-06
6.9722e-07
2.51258e-07
1.80888e-07
1.65321e-07
1.62489e-07
1.61788e-07
1.6164e-07
1.61592e-07
1.61569e-07
1.61469e-07
1.61357e-07
1.60474e-07
1.59798e-07
1.53286e-07
1.50509e-07
1.11601e-07
1.07591e-07
-1.62465e-05
1.56304e-05
2.79575e-06
6.96966e-07
2.51199e-07
1.80878e-07
1.65319e-07
1.62488e-07
1.61787e-07
1.6164e-07
1.61592e-07
1.61569e-07
1.61469e-07
1.61357e-07
1.60474e-07
1.59798e-07
1.53286e-07
1.50509e-07
1.11601e-07
1.07591e-07
-1.62386e-05
1.56189e-05
2.79175e-06
6.96362e-07
2.51064e-07
1.80855e-07
1.65313e-07
1.62487e-07
1.61787e-07
1.6164e-07
1.61592e-07
1.61569e-07
1.61469e-07
1.61357e-07
1.60474e-07
1.59798e-07
1.53286e-07
1.50509e-07
1.11601e-07
1.07591e-07
-1.62373e-05
1.56169e-05
2.79107e-06
6.96253e-07
2.51038e-07
1.80851e-07
1.65312e-07
1.62487e-07
1.61787e-07
1.6164e-07
1.61592e-07
1.61569e-07
1.61469e-07
1.61357e-07
1.60474e-07
1.59798e-07
1.53286e-07
1.50509e-07
1.11601e-07
1.07591e-07
-1.62351e-05
1.56136e-05
2.78991e-06
6.96079e-07
2.51e-07
1.80845e-07
1.65311e-07
1.62487e-07
1.61787e-07
1.6164e-07
1.61592e-07
1.61569e-07
1.61469e-07
1.61357e-07
1.60474e-07
1.59798e-07
1.53286e-07
1.50509e-07
1.11601e-07
1.07591e-07
-1.62351e-05
1.56136e-05
2.78991e-06
6.96079e-07
2.51e-07
1.80845e-07
1.65311e-07
1.62487e-07
1.61787e-07
1.6164e-07
1.61592e-07
1.61569e-07
1.61469e-07
1.61357e-07
1.60474e-07
1.59798e-07
1.53286e-07
1.50509e-07
1.11601e-07
1.07591e-07
-1.62373e-05
1.56169e-05
2.79107e-06
6.96253e-07
2.51038e-07
1.80851e-07
1.65312e-07
1.62487e-07
1.61787e-07
1.6164e-07
1.61592e-07
1.61569e-07
1.61469e-07
1.61357e-07
1.60474e-07
1.59798e-07
1.53286e-07
1.50509e-07
1.11601e-07
1.07591e-07
-1.62386e-05
1.56189e-05
2.79175e-06
6.96362e-07
2.51064e-07
1.80855e-07
1.65313e-07
1.62487e-07
1.61787e-07
1.6164e-07
1.61592e-07
1.61569e-07
1.61469e-07
1.61357e-07
1.60474e-07
1.59798e-07
1.53286e-07
1.50509e-07
1.11601e-07
1.07591e-07
-1.62465e-05
1.56304e-05
2.79575e-06
6.96966e-07
2.51199e-07
1.80878e-07
1.65319e-07
1.62488e-07
1.61787e-07
1.6164e-07
1.61592e-07
1.61569e-07
1.61469e-07
1.61357e-07
1.60474e-07
1.59798e-07
1.53286e-07
1.50509e-07
1.11601e-07
1.07591e-07
-1.62495e-05
1.56349e-05
2.79735e-06
6.9722e-07
2.51258e-07
1.80888e-07
1.65321e-07
1.62489e-07
1.61788e-07
1.6164e-07
1.61592e-07
1.61569e-07
1.61469e-07
1.61357e-07
1.60474e-07
1.59798e-07
1.53286e-07
1.50509e-07
1.11601e-07
1.07591e-07
-1.62663e-05
1.56604e-05
2.80608e-06
6.98527e-07
2.51545e-07
1.80934e-07
1.65332e-07
1.62491e-07
1.61788e-07
1.6164e-07
1.61592e-07
1.61569e-07
1.61469e-07
1.61357e-07
1.60475e-07
1.59799e-07
1.53286e-07
1.50509e-07
1.11601e-07
1.07591e-07
-1.62717e-05
1.56683e-05
2.8089e-06
6.98968e-07
2.51645e-07
1.80951e-07
1.65336e-07
1.62492e-07
1.61788e-07
1.61641e-07
1.61592e-07
1.61569e-07
1.61469e-07
1.61357e-07
1.60475e-07
1.59799e-07
1.53286e-07
1.50509e-07
1.11601e-07
1.07592e-07
-1.63014e-05
1.57209e-05
2.82515e-06
7.01141e-07
2.52068e-07
1.81006e-07
1.65348e-07
1.62494e-07
1.6179e-07
1.61642e-07
1.61593e-07
1.61571e-07
1.61471e-07
1.61359e-07
1.60477e-07
1.59802e-07
1.53293e-07
1.50516e-07
1.11613e-07
1.07598e-07
-1.63078e-05
1.57311e-05
2.82835e-06
7.01577e-07
2.52154e-07
1.81017e-07
1.65351e-07
1.62495e-07
1.6179e-07
1.61642e-07
1.61593e-07
1.61571e-07
1.61471e-07
1.61359e-07
1.60478e-07
1.59803e-07
1.53295e-07
1.50518e-07
1.11616e-07
1.076e-07
-1.62396e-05
1.57708e-05
2.814e-06
6.96603e-07
2.5093e-07
1.80716e-07
1.65298e-07
1.62496e-07
1.61807e-07
1.61662e-07
1.61615e-07
1.61593e-07
1.61495e-07
1.61386e-07
1.60519e-07
1.59851e-07
1.53415e-07
1.50644e-07
1.11916e-07
1.07812e-07
-1.58549e-05
1.59411e-05
2.83937e-06
7.02019e-07
2.51877e-07
1.80936e-07
1.65323e-07
1.6259e-07
1.61898e-07
1.61751e-07
1.61703e-07
1.61681e-07
1.61582e-07
1.6147e-07
1.60564e-07
1.59833e-07
1.53333e-07
1.50537e-07
1.11321e-07
1.07188e-07
-1.59182e-05
1.59012e-05
2.85387e-06
7.07049e-07
2.53115e-07
1.81241e-07
1.65377e-07
1.62588e-07
1.61881e-07
1.61731e-07
1.61681e-07
1.61659e-07
1.61557e-07
1.61444e-07
1.60522e-07
1.59784e-07
1.53212e-07
1.50409e-07
1.11017e-07
1.06972e-07
-1.59116e-05
1.58909e-05
2.85065e-06
7.06609e-07
2.53028e-07
1.81229e-07
1.65375e-07
1.62588e-07
1.61881e-07
1.61731e-07
1.61681e-07
1.61658e-07
1.61557e-07
1.61444e-07
1.60521e-07
1.59783e-07
1.5321e-07
1.50407e-07
1.11014e-07
1.0697e-07
-1.5881e-05
1.58378e-05