/*--------------------------------*- C++ -*----------------------------------*\
  =========                 |
  \\      /  F ield         | OpenFOAM: The Open Source CFD Toolbox
   \\    /   O peration     | Website:  https://openfoam.org
    \\  /    A nd           | Version:  8
     \\/     M anipulation  |
\*---------------------------------------------------------------------------*/
FoamFile
{
    version     2.0;
    format      ascii;
    class       volScalarField;
    location    "4";
    object      S1;
}
// * * * * * * * * * * * * * * * * * * * * * * * * * * * * * * * * * * * * * //

dimensions      [0 1 -1 0 0 0 0];

internalField   nonuniform List<scalar> 
180000
(
5.22685e-26
2.48348e-21
7.08698e-17
1.52744e-12
2.64505e-08
7.48474e-26
3.02752e-21
8.20319e-17
1.71817e-12
2.91628e-08
7.50958e-26
3.03382e-21
8.2156e-17
1.72003e-12
2.91832e-08
7.57255e-26
3.05038e-21
8.24867e-17
1.72509e-12
2.92387e-08
7.55911e-26
3.04715e-21
8.24146e-17
1.72367e-12
2.92142e-08
7.51702e-26
3.03715e-21
8.21963e-17
1.71951e-12
2.91442e-08
7.50925e-26
3.03525e-21
8.21541e-17
1.71869e-12
2.91301e-08
7.49003e-26
3.0306e-21
8.20518e-17
1.71673e-12
2.90972e-08
7.48706e-26
3.02987e-21
8.20355e-17
1.71641e-12
2.90917e-08
7.48203e-26
3.02864e-21
8.20083e-17
1.71589e-12
2.90827e-08
7.48203e-26
3.02864e-21
8.20083e-17
1.71589e-12
2.90827e-08
7.48706e-26
3.02987e-21
8.20355e-17
1.71641e-12
2.90917e-08
7.49003e-26
3.0306e-21
8.20518e-17
1.71673e-12
2.90972e-08
7.50925e-26
3.03525e-21
8.21541e-17
1.71869e-12
2.91301e-08
7.51702e-26
3.03715e-21
8.21963e-17
1.71951e-12
2.91442e-08
7.55911e-26
3.04715e-21
8.24146e-17
1.72367e-12
2.92142e-08
7.57255e-26
3.05038e-21
8.24867e-17
1.72509e-12
2.92387e-08
7.50959e-26
3.03382e-21
8.2156e-17
1.72003e-12
2.91832e-08
7.48474e-26
3.02752e-21
8.20319e-17
1.71817e-12
2.91628e-08
5.22685e-26
2.48348e-21
7.08698e-17
1.52744e-12
2.64505e-08
5.22668e-26
2.48339e-21
7.08656e-17
1.52907e-12
2.94208e-08
7.48455e-26
3.0274e-21
8.2027e-17
1.71986e-12
3.2283e-08
7.50939e-26
3.03371e-21
8.21511e-17
1.72172e-12
3.2302e-08
7.57236e-26
3.05027e-21
8.24818e-17
1.72677e-12
3.23507e-08
7.55892e-26
3.04703e-21
8.24097e-17
1.72535e-12
3.23229e-08
7.51683e-26
3.03704e-21
8.21915e-17
1.72118e-12
3.2243e-08
7.50906e-26
3.03514e-21
8.21492e-17
1.72036e-12
3.22271e-08
7.48984e-26
3.03048e-21
8.2047e-17
1.7184e-12
3.21897e-08
7.48687e-26
3.02976e-21
8.20307e-17
1.71808e-12
3.21834e-08
7.48184e-26
3.02853e-21
8.20034e-17
1.71755e-12
3.21731e-08
7.48184e-26
3.02853e-21
8.20034e-17
1.71755e-12
3.21731e-08
7.48687e-26
3.02976e-21
8.20307e-17
1.71808e-12
3.21834e-08
7.48984e-26
3.03048e-21
8.2047e-17
1.7184e-12
3.21897e-08
7.50906e-26
3.03514e-21
8.21492e-17
1.72036e-12
3.22271e-08
7.51683e-26
3.03704e-21
8.21915e-17
1.72118e-12
3.2243e-08
7.55892e-26
3.04703e-21
8.24097e-17
1.72535e-12
3.23229e-08
7.57236e-26
3.05027e-21
8.24818e-17
1.72677e-12
3.23507e-08
7.50939e-26
3.03371e-21
8.21511e-17
1.72172e-12
3.2302e-08
7.48455e-26
3.0274e-21
8.2027e-17
1.71986e-12
3.2283e-08
5.22668e-26
2.48339e-21
7.08656e-17
1.52907e-12
2.94208e-08
5.22654e-26
2.48323e-21
7.08647e-17
1.53987e-12
4.54092e-08
7.48437e-26
3.02721e-21
8.20249e-17
1.73095e-12
4.8819e-08
7.50923e-26
3.03352e-21
8.2149e-17
1.7328e-12
4.88319e-08
7.5722e-26
3.05008e-21
8.24797e-17
1.73781e-12
4.88539e-08
7.55875e-26
3.04684e-21
8.24076e-17
1.73638e-12
4.88134e-08
7.51667e-26
3.03684e-21
8.21894e-17
1.73216e-12
4.86957e-08
7.50889e-26
3.03494e-21
8.21472e-17
1.73133e-12
4.86726e-08
7.48967e-26
3.03029e-21
8.20449e-17
1.72936e-12
4.86172e-08
7.48671e-26
3.02956e-21
8.20286e-17
1.72904e-12
4.86078e-08
7.48168e-26
3.02834e-21
8.20014e-17
1.7285e-12
4.85925e-08
7.48168e-26
3.02834e-21
8.20014e-17
1.7285e-12
4.85925e-08
7.48671e-26
3.02956e-21
8.20286e-17
1.72904e-12
4.86078e-08
7.48967e-26
3.03029e-21
8.20449e-17
1.72936e-12
4.86172e-08
7.50889e-26
3.03494e-21
8.21472e-17
1.73133e-12
4.86726e-08
7.51667e-26
3.03684e-21
8.21894e-17
1.73216e-12
4.86957e-08
7.55875e-26
3.04684e-21
8.24076e-17
1.73638e-12
4.88134e-08
7.5722e-26
3.05008e-21
8.24797e-17
1.73781e-12
4.88539e-08
7.50923e-26
3.03352e-21
8.2149e-17
1.7328e-12
4.88319e-08
7.48437e-26
3.02721e-21
8.20249e-17
1.73095e-12
4.8819e-08
5.22654e-26
2.48323e-21
7.08647e-17
1.53987e-12
4.54092e-08
5.22639e-26
2.48299e-21
7.08823e-17
1.57447e-12
8.68024e-08
7.48417e-26
3.0269e-21
8.2041e-17
1.76615e-12
9.10942e-08
7.50905e-26
3.03322e-21
8.21652e-17
1.76798e-12
9.10945e-08
7.57201e-26
3.04977e-21
8.24957e-17
1.77286e-12
9.10718e-08
7.55857e-26
3.04654e-21
8.24236e-17
1.7714e-12
9.10089e-08
7.51649e-26
3.03654e-21
8.22053e-17
1.76709e-12
9.08261e-08
7.50871e-26
3.03464e-21
8.2163e-17
1.76624e-12
9.07899e-08
7.48949e-26
3.02999e-21
8.20608e-17
1.76422e-12
9.07032e-08
7.48652e-26
3.02926e-21
8.20445e-17
1.76389e-12
9.06884e-08
7.48149e-26
3.02803e-21
8.20172e-17
1.76335e-12
9.06641e-08
7.48149e-26
3.02803e-21
8.20172e-17
1.76335e-12
9.06641e-08
7.48652e-26
3.02926e-21
8.20445e-17
1.76389e-12
9.06884e-08
7.48949e-26
3.02999e-21
8.20608e-17
1.76422e-12
9.07032e-08
7.50871e-26
3.03464e-21
8.2163e-17
1.76624e-12
9.07899e-08
7.51649e-26
3.03654e-21
8.22053e-17
1.76709e-12
9.08261e-08
7.55857e-26
3.04654e-21
8.24236e-17
1.7714e-12
9.10089e-08
7.57201e-26
3.04977e-21
8.24957e-17
1.77286e-12
9.10718e-08
7.50905e-26
3.03322e-21
8.21652e-17
1.76798e-12
9.10945e-08
7.48417e-26
3.0269e-21
8.2041e-17
1.76615e-12
9.10942e-08
5.22639e-26
2.48299e-21
7.08823e-17
1.57447e-12
8.68024e-08
5.22622e-26
2.48268e-21
7.09445e-17
1.65121e-12
1.59855e-07
7.48394e-26
3.02651e-21
8.21013e-17
1.84364e-12
1.65024e-07
7.50884e-26
3.03283e-21
8.22255e-17
1.84542e-12
1.65005e-07
7.57181e-26
3.04939e-21
8.25556e-17
1.85006e-12
1.64919e-07
7.55837e-26
3.04615e-21
8.24834e-17
1.84854e-12
1.64828e-07
7.51628e-26
3.03616e-21
8.22649e-17
1.84404e-12
1.64565e-07
7.50851e-26
3.03426e-21
8.22226e-17
1.84316e-12
1.64512e-07
7.48929e-26
3.02961e-21
8.21202e-17
1.84105e-12
1.64386e-07
7.48632e-26
3.02888e-21
8.21039e-17
1.84071e-12
1.64364e-07
7.48129e-26
3.02765e-21
8.20766e-17
1.84014e-12
1.64329e-07
7.48129e-26
3.02765e-21
8.20766e-17
1.84014e-12
1.64329e-07
7.48632e-26
3.02888e-21
8.21039e-17
1.84071e-12
1.64364e-07
7.48929e-26
3.02961e-21
8.21202e-17
1.84105e-12
1.64386e-07
7.50851e-26
3.03426e-21
8.22226e-17
1.84316e-12
1.64512e-07
7.51628e-26
3.03616e-21
8.22649e-17
1.84404e-12
1.64565e-07
7.55837e-26
3.04615e-21
8.24834e-17
1.84854e-12
1.64828e-07
7.57181e-26
3.04939e-21
8.25556e-17
1.85006e-12
1.64919e-07
7.50884e-26
3.03283e-21
8.22255e-17
1.84542e-12
1.65005e-07
7.48394e-26
3.02651e-21
8.21013e-17
1.84364e-12
1.65024e-07
5.22622e-26
2.48268e-21
7.09445e-17
1.65121e-12
1.59855e-07
5.22603e-26
2.48238e-21
7.10899e-17
1.78918e-12
2.6581e-07
7.48367e-26
3.0261e-21
8.22436e-17
1.98222e-12
2.71599e-07
7.50862e-26
3.03243e-21
8.23678e-17
1.98391e-12
2.71551e-07
7.57158e-26
3.04898e-21
8.26969e-17
1.98811e-12
2.71362e-07
7.55814e-26
3.04575e-21
8.26246e-17
1.98649e-12
2.71237e-07
7.51606e-26
3.03575e-21
8.24056e-17
1.9817e-12
2.70877e-07
7.50829e-26
3.03385e-21
8.23632e-17
1.98076e-12
2.70804e-07
7.48906e-26
3.02921e-21
8.22607e-17
1.97851e-12
2.70632e-07
7.4861e-26
3.02848e-21
8.22443e-17
1.97815e-12
2.70602e-07
7.48107e-26
3.02725e-21
8.22169e-17
1.97754e-12
2.70553e-07
7.48107e-26
3.02725e-21
8.22169e-17
1.97754e-12
2.70553e-07
7.4861e-26
3.02848e-21
8.22443e-17
1.97815e-12
2.70602e-07
7.48906e-26
3.02921e-21
8.22607e-17
1.97851e-12
2.70632e-07
7.50829e-26
3.03385e-21
8.23632e-17
1.98076e-12
2.70804e-07
7.51606e-26
3.03575e-21
8.24056e-17
1.9817e-12
2.70877e-07
7.55814e-26
3.04575e-21
8.26246e-17
1.98649e-12
2.71237e-07
7.57158e-26
3.04898e-21
8.26969e-17
1.98811e-12
2.71362e-07
7.50862e-26
3.03243e-21
8.23678e-17
1.98391e-12
2.71551e-07
7.48367e-26
3.0261e-21
8.22436e-17
1.98222e-12
2.71599e-07
5.22603e-26
2.48238e-21
7.10899e-17
1.78918e-12
2.6581e-07
5.22583e-26
2.48217e-21
7.1369e-17
2.00763e-12
4.04891e-07
7.48339e-26
3.02576e-21
8.25178e-17
2.20074e-12
4.10914e-07
7.50838e-26
3.03209e-21
8.26419e-17
2.20229e-12
4.10824e-07
7.57134e-26
3.04864e-21
8.29693e-17
2.20578e-12
4.10461e-07
7.5579e-26
3.04541e-21
8.28967e-17
2.20402e-12
4.10295e-07
7.51582e-26
3.03542e-21
8.26768e-17
2.19878e-12
4.09812e-07
7.50804e-26
3.03352e-21
8.26343e-17
2.19777e-12
4.09715e-07
7.48882e-26
3.02887e-21
8.25313e-17
2.19531e-12
4.09484e-07
7.48586e-26
3.02814e-21
8.25148e-17
2.19491e-12
4.09444e-07
7.48083e-26
3.02691e-21
8.24873e-17
2.19424e-12
4.09378e-07
7.48083e-26
3.02691e-21
8.24873e-17
2.19424e-12
4.09378e-07
7.48586e-26
3.02814e-21
8.25148e-17
2.19491e-12
4.09444e-07
7.48882e-26
3.02887e-21
8.25313e-17
2.19531e-12
4.09484e-07
7.50804e-26
3.03352e-21
8.26343e-17
2.19777e-12
4.09715e-07
7.51582e-26
3.03542e-21
8.26768e-17
2.19878e-12
4.09812e-07
7.5579e-26
3.04541e-21
8.28967e-17
2.20402e-12
4.10295e-07
7.57134e-26
3.04864e-21
8.29693e-17
2.20578e-12
4.10461e-07
7.50838e-26
3.03209e-21
8.26419e-17
2.20229e-12
4.10824e-07
7.48339e-26
3.02576e-21
8.25178e-17
2.20074e-12
4.10914e-07
5.22583e-26
2.48217e-21
7.1369e-17
2.00763e-12
4.04891e-07
5.22564e-26
2.48217e-21
7.18449e-17
2.32613e-12
5.77595e-07
7.48309e-26
3.0256e-21
8.29859e-17
2.51835e-12
5.8336e-07
7.50813e-26
3.03195e-21
8.31096e-17
2.51968e-12
5.8321e-07
7.57109e-26
3.04849e-21
8.3434e-17
2.52209e-12
5.82571e-07
7.55765e-26
3.04526e-21
8.33609e-17
2.52014e-12
5.82354e-07
7.51557e-26
3.03527e-21
8.31395e-17
2.51426e-12
5.81709e-07
7.5078e-26
3.03337e-21
8.30967e-17
2.51313e-12
5.81583e-07
7.48858e-26
3.02872e-21
8.2993e-17
2.51038e-12
5.81276e-07
7.48561e-26
3.02799e-21
8.29764e-17
2.50993e-12
5.81223e-07
7.48058e-26
3.02676e-21
8.29488e-17
2.50917e-12
5.81135e-07
7.48058e-26
3.02676e-21
8.29488e-17
2.50917e-12
5.81135e-07
7.48561e-26
3.02799e-21
8.29764e-17
2.50993e-12
5.81223e-07
7.48858e-26
3.02872e-21
8.2993e-17
2.51038e-12
5.81276e-07
7.5078e-26
3.03337e-21
8.30967e-17
2.51313e-12
5.81583e-07
7.51557e-26
3.03527e-21
8.31395e-17
2.51426e-12
5.81709e-07
7.55765e-26
3.04526e-21
8.33609e-17
2.52014e-12
5.82354e-07
7.57109e-26
3.04849e-21
8.3434e-17
2.52209e-12
5.82571e-07
7.50813e-26
3.03195e-21
8.31096e-17
2.51968e-12
5.8321e-07
7.48309e-26
3.0256e-21
8.29859e-17
2.51835e-12
5.8336e-07
5.22564e-26
2.48217e-21
7.18449e-17
2.32613e-12
5.77595e-07
5.22547e-26
2.48256e-21
7.25932e-17
2.76453e-12
7.84267e-07
7.4828e-26
3.02581e-21
8.37216e-17
2.95432e-12
7.89135e-07
7.5079e-26
3.03216e-21
8.38446e-17
2.95535e-12
7.88906e-07
7.57086e-26
3.04869e-21
8.41643e-17
2.95619e-12
7.87862e-07
7.55742e-26
3.04546e-21
8.40906e-17
2.95397e-12
7.87582e-07
7.51534e-26
3.03547e-21
8.38667e-17
2.94722e-12
7.86725e-07
7.50757e-26
3.03357e-21
8.38235e-17
2.94594e-12
7.86563e-07
7.48835e-26
3.02892e-21
8.37187e-17
2.94278e-12
7.86158e-07
7.48538e-26
3.02819e-21
8.3702e-17
2.94227e-12
7.86089e-07
7.48035e-26
3.02696e-21
8.3674e-17
2.94139e-12
7.85972e-07
7.48036e-26
3.02696e-21
8.3674e-17
2.94139e-12
7.85972e-07
7.48538e-26
3.02819e-21
8.3702e-17
2.94227e-12
7.86089e-07
7.48835e-26
3.02892e-21
8.37187e-17
2.94278e-12
7.86158e-07
7.50757e-26
3.03357e-21
8.38235e-17
2.94594e-12
7.86563e-07
7.51534e-26
3.03547e-21
8.38667e-17
2.94722e-12
7.86725e-07
7.55742e-26
3.04546e-21
8.40906e-17
2.95397e-12
7.87582e-07
7.57086e-26
3.04869e-21
8.41643e-17
2.95619e-12
7.87862e-07
7.5079e-26
3.03216e-21
8.38446e-17
2.95535e-12
7.88906e-07
7.48281e-26
3.02581e-21
8.37216e-17
2.95432e-12
7.89135e-07
5.22547e-26
2.48256e-21
7.25932e-17
2.76453e-12
7.84267e-07
5.22538e-26
2.48356e-21
7.37016e-17
3.34224e-12
1.02417e-06
7.48257e-26
3.02658e-21
8.48104e-17
3.52743e-12
1.02732e-06
7.50773e-26
3.03295e-21
8.49324e-17
3.52804e-12
1.02699e-06
7.57069e-26
3.04946e-21
8.5245e-17
3.52669e-12
1.02539e-06
7.55725e-26
3.04623e-21
8.51702e-17
3.52413e-12
1.02503e-06
7.51517e-26
3.03623e-21
8.49428e-17
3.51622e-12
1.0239e-06
7.5074e-26
3.03434e-21
8.4899e-17
3.51474e-12
1.02369e-06
7.48818e-26
3.02969e-21
8.47925e-17
3.51104e-12
1.02316e-06
7.48521e-26
3.02896e-21
8.47755e-17
3.51044e-12
1.02308e-06
7.48018e-26
3.02773e-21
8.47471e-17
3.50941e-12
1.02292e-06
7.48018e-26
3.02773e-21
8.47471e-17
3.50941e-12
1.02292e-06
7.48521e-26
3.02896e-21
8.47755e-17
3.51044e-12
1.02308e-06
7.48818e-26
3.02969e-21
8.47925e-17
3.51104e-12
1.02316e-06
7.5074e-26
3.03434e-21
8.4899e-17
3.51474e-12
1.02369e-06
7.51517e-26
3.03623e-21
8.49428e-17
3.51622e-12
1.0239e-06
7.55725e-26
3.04623e-21
8.51702e-17
3.52413e-12
1.02503e-06
7.57069e-26
3.04946e-21
8.5245e-17
3.52669e-12
1.02539e-06
7.50773e-26
3.03295e-21
8.49324e-17
3.52804e-12
1.02699e-06
7.48257e-26
3.02658e-21
8.48104e-17
3.52743e-12
1.02732e-06
5.22538e-26
2.48356e-21
7.37016e-17
3.34224e-12
1.02417e-06
5.22541e-26
2.48539e-21
7.51691e-17
3.91843e-12
1.02176e-06
7.48243e-26
3.02815e-21
8.62513e-17
4.09901e-12
1.02495e-06
7.50767e-26
3.03453e-21
8.63718e-17
4.09921e-12
1.02462e-06
7.57062e-26
3.05102e-21
8.66751e-17
4.0957e-12
1.02304e-06
7.55718e-26
3.04778e-21
8.65989e-17
4.0928e-12
1.02269e-06
7.5151e-26
3.03778e-21
8.63668e-17
4.08372e-12
1.02157e-06
7.50733e-26
3.03588e-21
8.63222e-17
4.08205e-12
1.02137e-06
7.48811e-26
3.03123e-21
8.62135e-17
4.07782e-12
1.02084e-06
7.48514e-26
3.0305e-21
8.61962e-17
4.07714e-12
1.02075e-06
7.48011e-26
3.02927e-21
8.61671e-17
4.07595e-12
1.0206e-06
7.48012e-26
3.02927e-21
8.61671e-17
4.07595e-12
1.0206e-06
7.48514e-26
3.0305e-21
8.61962e-17
4.07714e-12
1.02075e-06
7.48811e-26
3.03123e-21
8.62135e-17
4.07782e-12
1.02084e-06
7.50733e-26
3.03588e-21
8.63222e-17
4.08205e-12
1.02137e-06
7.5151e-26
3.03778e-21
8.63668e-17
4.08372e-12
1.02157e-06
7.55718e-26
3.04778e-21
8.65989e-17
4.0928e-12
1.02269e-06
7.57062e-26
3.05102e-21
8.66751e-17
4.0957e-12
1.02304e-06
7.50767e-26
3.03453e-21
8.63718e-17
4.09921e-12
1.02462e-06
7.48243e-26
3.02815e-21
8.62513e-17
4.09901e-12
1.02495e-06
5.22541e-26
2.48539e-21
7.51691e-17
3.91843e-12
1.02176e-06
5.22563e-26
2.48827e-21
7.69947e-17
4.49308e-12
1.01942e-06
7.48247e-26
3.03073e-21
8.80433e-17
4.66906e-12
1.02265e-06
7.50778e-26
3.03712e-21
8.81619e-17
4.66885e-12
1.02233e-06
7.57072e-26
3.05357e-21
8.84535e-17
4.66319e-12
1.02077e-06
7.55728e-26
3.05033e-21
8.83756e-17
4.65995e-12
1.02042e-06
7.5152e-26
3.04032e-21
8.81376e-17
4.64973e-12
1.01931e-06
7.50743e-26
3.03842e-21
8.80921e-17
4.64786e-12
1.01911e-06
7.48821e-26
3.03376e-21
8.79807e-17
4.6431e-12
1.01859e-06
7.48525e-26
3.03303e-21
8.79629e-17
4.64233e-12
1.01851e-06
7.48022e-26
3.0318e-21
8.79331e-17
4.641e-12
1.01836e-06
7.48022e-26
3.0318e-21
8.79331e-17
4.641e-12
1.01836e-06
7.48525e-26
3.03303e-21
8.79629e-17
4.64233e-12
1.01851e-06
7.48821e-26
3.03376e-21
8.79807e-17
4.6431e-12
1.01859e-06
7.50743e-26
3.03842e-21
8.80921e-17
4.64786e-12
1.01911e-06
7.5152e-26
3.04032e-21
8.81376e-17
4.64973e-12
1.01931e-06
7.55728e-26
3.05033e-21
8.83756e-17
4.65995e-12
1.02042e-06
7.57072e-26
3.05357e-21
8.84535e-17
4.66319e-12
1.02077e-06
7.50778e-26
3.03712e-21
8.81619e-17
4.66885e-12
1.02233e-06
7.48247e-26
3.03073e-21
8.80432e-17
4.66906e-12
1.02265e-06
5.22563e-26
2.48827e-21
7.69947e-17
4.49308e-12
1.01942e-06
5.22613e-26
2.49243e-21
7.91772e-17
5.06613e-12
1.01715e-06
7.48274e-26
3.03453e-21
9.01851e-17
5.23749e-12
1.02042e-06
7.50814e-26
3.04093e-21
9.03015e-17
5.23688e-12
1.0201e-06
7.57107e-26
3.05733e-21
9.05791e-17
5.22909e-12
1.01856e-06
7.55763e-26
3.05409e-21
9.04992e-17
5.22551e-12
1.01822e-06
7.51555e-26
3.04406e-21
9.02542e-17
5.21415e-12
1.01712e-06
7.50778e-26
3.04216e-21
9.02075e-17
5.2121e-12
1.01692e-06
7.48856e-26
3.0375e-21
9.00929e-17
5.20681e-12
1.01641e-06
7.48559e-26
3.03676e-21
9.00746e-17
5.20596e-12
1.01632e-06
7.48056e-26
3.03553e-21
9.00438e-17
5.20447e-12
1.01617e-06
7.48056e-26
3.03553e-21
9.00438e-17
5.20447e-12
1.01617e-06
7.48559e-26
3.03676e-21
9.00746e-17
5.20596e-12
1.01632e-06
7.48856e-26
3.03749e-21
9.00929e-17
5.20681e-12
1.01641e-06
7.50778e-26
3.04216e-21
9.02074e-17
5.2121e-12
1.01692e-06
7.51555e-26
3.04406e-21
9.02542e-17
5.21415e-12
1.01712e-06
7.55763e-26
3.05409e-21
9.04992e-17
5.22551e-12
1.01822e-06
7.57107e-26
3.05733e-21
9.05791e-17
5.22909e-12
1.01856e-06
7.50814e-26
3.04093e-21
9.03015e-17
5.23688e-12
1.0201e-06
7.48274e-26
3.03453e-21
9.01851e-17
5.23749e-12
1.02042e-06
5.22613e-26
2.49243e-21
7.91772e-17
5.06613e-12
1.01715e-06
5.22701e-26
2.49809e-21
8.17153e-17
5.6375e-12
1.01495e-06
7.48336e-26
3.03978e-21
9.26755e-17
5.80422e-12
1.01826e-06
7.50885e-26
3.04618e-21
9.27893e-17
5.80322e-12
1.01794e-06
7.57176e-26
3.06252e-21
9.30507e-17
5.79332e-12
1.01642e-06
7.55832e-26
3.05928e-21
9.29684e-17
5.78941e-12
1.01608e-06
7.51624e-26
3.04922e-21
9.27152e-17
5.77692e-12
1.01499e-06
7.50846e-26
3.04732e-21
9.26672e-17
5.77468e-12
1.01479e-06
7.48924e-26
3.04264e-21
9.25488e-17
5.76886e-12
1.01429e-06
7.48627e-26
3.04191e-21
9.253e-17
5.76793e-12
1.0142e-06
7.48124e-26
3.04067e-21
9.24981e-17
5.76629e-12
1.01405e-06
7.48124e-26
3.04067e-21
9.24981e-17
5.76629e-12
1.01405e-06
7.48627e-26
3.04191e-21
9.253e-17
5.76793e-12
1.0142e-06
7.48924e-26
3.04264e-21
9.25488e-17
5.76886e-12
1.01429e-06
7.50846e-26
3.04732e-21
9.26672e-17
5.77468e-12
1.01479e-06
7.51624e-26
3.04922e-21
9.27152e-17
5.77692e-12
1.01499e-06
7.55832e-26
3.05928e-21
9.29684e-17
5.78941e-12
1.01608e-06
7.57176e-26
3.06252e-21
9.30507e-17
5.79332e-12
1.01642e-06
7.50885e-26
3.04618e-21
9.27893e-17
5.80322e-12
1.01794e-06
7.48336e-26
3.03978e-21
9.26754e-17
5.80422e-12
1.01826e-06
5.22701e-26
2.49809e-21
8.17153e-17
5.6375e-12
1.01495e-06
5.22836e-26
2.50547e-21
8.46076e-17
6.20709e-12
1.0128e-06
7.48442e-26
3.04667e-21
9.55131e-17
6.36918e-12
1.01615e-06
7.51001e-26
3.05309e-21
9.56239e-17
6.36778e-12
1.01584e-06
7.5729e-26
3.06935e-21
9.58669e-17
6.3558e-12
1.01434e-06
7.55946e-26
3.06609e-21
9.57819e-17
6.35156e-12
1.014e-06
7.51736e-26
3.05601e-21
9.55194e-17
6.33795e-12
1.01292e-06
7.50959e-26
3.0541e-21
9.54699e-17
6.33552e-12
1.01273e-06
7.49036e-26
3.04941e-21
9.53473e-17
6.32919e-12
1.01222e-06
7.4874e-26
3.04867e-21
9.53278e-17
6.32818e-12
1.01214e-06
7.48236e-26
3.04744e-21
9.52946e-17
6.32638e-12
1.01199e-06
7.48236e-26
3.04744e-21
9.52946e-17
6.32638e-12
1.01199e-06
7.4874e-26
3.04867e-21
9.53278e-17
6.32818e-12
1.01214e-06
7.49036e-26
3.04941e-21
9.53473e-17
6.32919e-12
1.01222e-06
7.50959e-26
3.0541e-21
9.54699e-17
6.33552e-12
1.01273e-06
7.51736e-26
3.05601e-21
9.55194e-17
6.33795e-12
1.01292e-06
7.55946e-26
3.06609e-21
9.57819e-17
6.35156e-12
1.014e-06
7.57289e-26
3.06935e-21
9.58668e-17
6.3558e-12
1.01434e-06
7.51001e-26
3.05309e-21
9.56239e-17
6.36778e-12
1.01584e-06
7.48442e-26
3.04667e-21
9.55131e-17
6.36917e-12
1.01615e-06
5.22836e-26
2.50547e-21
8.46076e-17
6.20709e-12
1.0128e-06
5.23033e-26
2.51478e-21
8.78529e-17
6.77482e-12
1.01072e-06
7.48605e-26
3.05543e-21
9.86965e-17
6.93226e-12
1.0141e-06
7.51174e-26
3.06185e-21
9.88039e-17
6.93049e-12
1.01379e-06
7.57459e-26
3.07802e-21
9.90262e-17
6.91644e-12
1.01231e-06
7.56116e-26
3.07475e-21
9.89383e-17
6.91187e-12
1.01197e-06
7.51905e-26
3.06463e-21
9.86654e-17
6.89716e-12
1.0109e-06
7.51127e-26
3.06272e-21
9.86142e-17
6.89454e-12
1.01071e-06
7.49204e-26
3.05801e-21
9.84868e-17
6.88769e-12
1.01021e-06
7.48908e-26
3.05727e-21
9.84666e-17
6.8866e-12
1.01013e-06
7.48404e-26
3.05603e-21
9.84321e-17
6.88466e-12
1.00998e-06
7.48404e-26
3.05603e-21
9.84321e-17
6.88466e-12
1.00998e-06
7.48908e-26
3.05727e-21
9.84666e-17
6.8866e-12
1.01013e-06
7.49204e-26
3.05801e-21
9.84868e-17
6.88769e-12
1.01021e-06
7.51127e-26
3.06272e-21
9.86142e-17
6.89454e-12
1.01071e-06
7.51905e-26
3.06463e-21
9.86654e-17
6.89716e-12
1.0109e-06
7.56116e-26
3.07475e-21
9.89383e-17
6.91187e-12
1.01197e-06
7.57459e-26
3.07802e-21
9.90262e-17
6.91644e-12
1.01231e-06
7.51173e-26
3.06185e-21
9.88039e-17
6.93049e-12
1.01379e-06
7.48605e-26
3.05543e-21
9.86964e-17
6.93226e-12
1.0141e-06
5.23033e-26
2.51478e-21
8.78529e-17
6.77482e-12
1.01072e-06
5.23305e-26
2.52624e-21
9.14495e-17
7.3406e-12
1.00868e-06
7.48838e-26
3.06627e-21
1.02224e-16
7.49339e-12
1.01209e-06
7.51417e-26
3.07269e-21
1.02328e-16
7.49124e-12
1.01179e-06
7.57699e-26
3.08875e-21
1.02527e-16
7.47515e-12
1.01033e-06
7.56355e-26
3.08547e-21
1.02436e-16
7.47027e-12
1.00999e-06
7.52143e-26
3.0753e-21
1.02152e-16
7.45445e-12
1.00893e-06
7.51365e-26
3.07337e-21
1.02099e-16
7.45165e-12
1.00874e-06
7.49441e-26
3.06865e-21
1.01966e-16
7.44429e-12
1.00825e-06
7.49144e-26
3.0679e-21
1.01945e-16
7.44313e-12
1.00816e-06
7.48641e-26
3.06665e-21
1.01909e-16
7.44104e-12
1.00802e-06
7.48641e-26
3.06665e-21
1.01909e-16
7.44104e-12
1.00802e-06
7.49144e-26
3.0679e-21
1.01945e-16
7.44313e-12
1.00816e-06
7.49441e-26
3.06865e-21
1.01966e-16
7.44429e-12
1.00825e-06
7.51365e-26
3.07337e-21
1.02099e-16
7.45165e-12
1.00874e-06
7.52143e-26
3.0753e-21
1.02152e-16
7.45445e-12
1.00893e-06
7.56355e-26
3.08547e-21
1.02436e-16
7.47027e-12
1.00999e-06
7.57699e-26
3.08875e-21
1.02527e-16
7.47515e-12
1.01033e-06
7.51417e-26
3.07269e-21
1.02328e-16
7.49124e-12
1.01179e-06
7.48838e-26
3.06627e-21
1.02224e-16
7.49339e-12
1.01209e-06
5.23305e-26
2.52624e-21
9.14495e-17
7.3406e-12
1.00868e-06
5.23668e-26
2.54008e-21
9.53957e-17
7.90435e-12
1.0067e-06
7.49156e-26
3.07939e-21
1.06094e-16
8.05248e-12
1.01014e-06
7.51746e-26
3.08581e-21
1.06194e-16
8.04995e-12
1.00983e-06
7.58023e-26
3.10173e-21
1.06368e-16
8.03185e-12
1.00839e-06
7.56678e-26
3.09844e-21
1.06274e-16
8.02665e-12
1.00806e-06
7.52464e-26
3.08821e-21
1.05977e-16
8.00974e-12
1.00701e-06
7.51686e-26
3.08628e-21
1.05921e-16
8.00676e-12
1.00682e-06
7.49761e-26
3.08153e-21
1.05783e-16
7.9989e-12
1.00633e-06
7.49464e-26
3.08078e-21
1.05761e-16
7.99766e-12
1.00624e-06
7.48961e-26
3.07952e-21
1.05723e-16
7.99542e-12
1.0061e-06
7.48961e-26
3.07952e-21
1.05723e-16
7.99542e-12
1.0061e-06
7.49464e-26
3.08078e-21
1.05761e-16
7.99766e-12
1.00624e-06
7.49761e-26
3.08153e-21
1.05783e-16
7.9989e-12
1.00633e-06
7.51686e-26
3.08628e-21
1.05921e-16
8.00676e-12
1.00682e-06
7.52464e-26
3.08821e-21
1.05977e-16
8.00974e-12
1.00701e-06
7.56678e-26
3.09844e-21
1.06274e-16
8.02665e-12
1.00806e-06
7.58022e-26
3.10173e-21
1.06368e-16
8.03185e-12
1.00839e-06
7.51746e-26
3.08581e-21
1.06194e-16
8.04995e-12
1.00983e-06
7.49156e-26
3.07939e-21
1.06094e-16
8.05248e-12
1.01014e-06
5.23668e-26
2.54008e-21
9.53957e-17
7.90435e-12
1.0067e-06
5.24138e-26
2.55649e-21
9.96901e-17
8.46595e-12
1.00475e-06
7.49575e-26
3.09501e-21
1.10305e-16
8.60942e-12
1.00821e-06
7.52176e-26
3.10143e-21
1.104e-16
8.60652e-12
1.00792e-06
7.58446e-26
3.11719e-21
1.10548e-16
8.58643e-12
1.00649e-06
7.57101e-26
3.11388e-21
1.10449e-16
8.58092e-12
1.00616e-06
7.52885e-26
3.10359e-21
1.10139e-16
8.56294e-12
1.00512e-06
7.52106e-26
3.10164e-21
1.10081e-16
8.55977e-12
1.00493e-06
7.50181e-26
3.09685e-21
1.09937e-16
8.55142e-12
1.00444e-06
7.49884e-26
3.0961e-21
1.09914e-16
8.5501e-12
1.00436e-06
7.49379e-26
3.09484e-21
1.09874e-16
8.54772e-12
1.00422e-06
7.4938e-26
3.09484e-21
1.09874e-16
8.54772e-12
1.00422e-06
7.49884e-26
3.0961e-21
1.09914e-16
8.5501e-12
1.00436e-06
7.50181e-26
3.09685e-21
1.09937e-16
8.55142e-12
1.00444e-06
7.52106e-26
3.10164e-21
1.10081e-16
8.55977e-12
1.00493e-06
7.52885e-26
3.10359e-21
1.10139e-16
8.56294e-12
1.00512e-06
7.57101e-26
3.11388e-21
1.10449e-16
8.58092e-12
1.00616e-06
7.58446e-26
3.11719e-21
1.10548e-16
8.58643e-12
1.00649e-06
7.52176e-26
3.10143e-21
1.104e-16
8.60652e-12
1.00792e-06
7.49575e-26
3.095e-21
1.10305e-16
8.60942e-12
1.00821e-06
5.24138e-26
2.55649e-21
9.96901e-17
8.46595e-12
1.00475e-06
5.24735e-26
2.57571e-21
1.04331e-16
9.02529e-12
1.0028e-06
7.50113e-26
3.11332e-21
1.14855e-16
9.16409e-12
1.00629e-06
7.52725e-26
3.11974e-21
1.14946e-16
9.16083e-12
1.006e-06
7.58988e-26
3.13532e-21
1.15064e-16
9.13878e-12
1.00459e-06
7.57642e-26
3.13199e-21
1.14961e-16
9.13296e-12
1.00426e-06
7.53422e-26
3.12161e-21
1.14636e-16
9.11392e-12
1.00323e-06
7.52643e-26
3.11966e-21
1.14576e-16
9.11058e-12
1.00304e-06
7.50716e-26
3.11483e-21
1.14425e-16
9.10173e-12
1.00256e-06
7.50419e-26
3.11408e-21
1.14401e-16
9.10033e-12
1.00248e-06
7.49914e-26
3.1128e-21
1.14359e-16
9.09781e-12
1.00234e-06
7.49914e-26
3.1128e-21
1.14359e-16
9.09781e-12
1.00234e-06
7.50419e-26
3.11408e-21
1.14401e-16
9.10033e-12
1.00248e-06
7.50716e-26
3.11483e-21
1.14425e-16
9.10173e-12
1.00256e-06
7.52643e-26
3.11966e-21
1.14576e-16
9.11058e-12
1.00304e-06
7.53422e-26
3.12161e-21
1.14636e-16
9.11392e-12
1.00323e-06
7.57642e-26
3.13199e-21
1.14961e-16
9.13296e-12
1.00426e-06
7.58987e-26
3.13532e-21
1.15064e-16
9.13878e-12
1.00459e-06
7.52725e-26
3.11974e-21
1.14946e-16
9.16083e-12
1.006e-06
7.50112e-26
3.11332e-21
1.14855e-16
9.16409e-12
1.00629e-06
5.24734e-26
2.5757e-21
1.04331e-16
9.02529e-12
1.0028e-06
0.000830454
0.000188043
7.28534e-06
5.85363e-08
6.75296e-11
2.23875e-13
2.27816e-13
2.29041e-13
2.29307e-13
2.29355e-13
2.29375e-13
2.29497e-13
2.30106e-13
2.30833e-13
2.36758e-13
2.41755e-13
2.93879e-13
3.21814e-13
1.02837e-12
1.201e-12
0.000900152
0.000205398
8.16818e-06
6.84624e-08
8.59375e-11
2.29249e-13
2.27775e-13
2.2903e-13
2.29302e-13
2.29351e-13
2.29366e-13
2.29465e-13
2.30088e-13
2.30827e-13
2.36856e-13
2.41914e-13
2.94736e-13
3.22858e-13
1.03771e-12
1.21242e-12
0.000900435
0.000205404
8.16271e-06
6.839e-08
8.57985e-11
2.29212e-13
2.27774e-13
2.2903e-13
2.29302e-13
2.29352e-13
2.29366e-13
2.29467e-13
2.3009e-13
2.3083e-13
2.36861e-13
2.4192e-13
2.94752e-13
3.22876e-13
1.0378e-12
1.21251e-12
0.000901297
0.000205161
8.11291e-06
6.7735e-08
8.45622e-11
2.2892e-13
2.27773e-13
2.2903e-13
2.29303e-13
2.29352e-13
2.29367e-13
2.29476e-13
2.30101e-13
2.30842e-13
2.36879e-13
2.41942e-13
2.94809e-13
3.22936e-13
1.03809e-12
1.21277e-12
0.000900504
0.000204938
8.09901e-06
6.7576e-08
8.42518e-11
2.28823e-13
2.27773e-13
2.2903e-13
2.29302e-13
2.29352e-13
2.29367e-13
2.29476e-13
2.30101e-13
2.30842e-13
2.3688e-13
2.41943e-13
2.94811e-13
3.22937e-13
1.0381e-12
1.21278e-12
0.000898328
0.000204226
8.0515e-06
6.70279e-08
8.31989e-11
2.285e-13
2.27773e-13
2.2903e-13
2.29303e-13
2.29352e-13
2.29368e-13
2.29477e-13
2.30102e-13
2.30843e-13
2.36881e-13
2.41944e-13
2.94813e-13
3.2294e-13
1.03811e-12
1.21278e-12
0.000897876
0.000204101
8.04394e-06
6.69427e-08
8.30319e-11
2.28447e-13
2.27773e-13
2.2903e-13
2.29303e-13
2.29352e-13
2.29368e-13
2.29477e-13
2.30102e-13
2.30843e-13
2.36881e-13
2.41944e-13
2.94814e-13
3.2294e-13
1.03811e-12
1.21278e-12
0.00089685
0.000203773
8.0226e-06
6.66993e-08
8.25633e-11
2.28299e-13
2.27773e-13
2.2903e-13
2.29303e-13
2.29352e-13
2.29368e-13
2.29477e-13
2.30102e-13
2.30843e-13
2.36881e-13
2.41944e-13
2.94814e-13
3.22941e-13
1.03811e-12
1.21278e-12
0.000896669
0.000203723
8.01956e-06
6.66651e-08
8.24962e-11
2.28277e-13
2.27773e-13
2.2903e-13
2.29303e-13
2.29352e-13
2.29368e-13
2.29477e-13
2.30102e-13
2.30843e-13
2.36881e-13
2.41944e-13
2.94814e-13
3.22941e-13
1.03811e-12
1.21278e-12
0.000896385
0.000203632
8.01364e-06
6.65978e-08
8.23663e-11
2.28236e-13
2.27773e-13
2.2903e-13
2.29303e-13
2.29352e-13
2.29368e-13
2.29477e-13
2.30102e-13
2.30843e-13
2.36881e-13
2.41944e-13
2.94814e-13
3.2294e-13
1.03811e-12
1.21278e-12
0.000896385
0.000203632
8.01364e-06
6.65978e-08
8.23663e-11
2.28236e-13
2.27773e-13
2.2903e-13
2.29303e-13
2.29352e-13
2.29368e-13
2.29477e-13
2.30102e-13
2.30843e-13
2.36881e-13
2.41944e-13
2.94814e-13
3.2294e-13
1.03811e-12
1.21278e-12
0.000896669
0.000203723
8.01956e-06
6.66651e-08
8.24962e-11
2.28277e-13
2.27773e-13
2.2903e-13
2.29303e-13
2.29352e-13
2.29368e-13
2.29477e-13
2.30102e-13
2.30843e-13
2.36881e-13
2.41944e-13
2.94814e-13
3.22941e-13
1.03811e-12
1.21278e-12
0.00089685
0.000203773
8.0226e-06
6.66993e-08
8.25633e-11
2.28299e-13
2.27773e-13
2.2903e-13
2.29303e-13
2.29352e-13
2.29368e-13
2.29477e-13
2.30102e-13
2.30843e-13
2.36881e-13
2.41944e-13
2.94814e-13
3.22941e-13
1.03811e-12
1.21278e-12
0.000897876
0.000204101
8.04394e-06
6.69427e-08
8.30319e-11
2.28447e-13
2.27773e-13
2.2903e-13
2.29303e-13
2.29352e-13
2.29368e-13
2.29477e-13
2.30102e-13
2.30843e-13
2.36881e-13
2.41944e-13
2.94814e-13
3.2294e-13
1.03811e-12
1.21278e-12
0.000898328
0.000204226
8.0515e-06
6.70279e-08
8.31989e-11
2.285e-13
2.27773e-13
2.2903e-13
2.29303e-13
2.29352e-13
2.29368e-13
2.29477e-13
2.30102e-13
2.30843e-13
2.36881e-13
2.41944e-13
2.94813e-13
3.2294e-13
1.03811e-12
1.21278e-12
0.000900504
0.000204938
8.09901e-06
6.7576e-08
8.42518e-11
2.28823e-13
2.27773e-13
2.2903e-13
2.29302e-13
2.29352e-13
2.29367e-13
2.29476e-13
2.30101e-13
2.30842e-13
2.3688e-13
2.41943e-13
2.94811e-13
3.22937e-13
1.0381e-12
1.21278e-12
0.000901297
0.000205161
8.11291e-06
6.7735e-08
8.45622e-11
2.2892e-13
2.27773e-13
2.2903e-13
2.29303e-13
2.29352e-13
2.29367e-13
2.29476e-13
2.30101e-13
2.30842e-13
2.36879e-13
2.41942e-13
2.94809e-13
3.22936e-13
1.03809e-12
1.21277e-12
0.000900435
0.000205404
8.16271e-06
6.839e-08
8.57985e-11
2.29212e-13
2.27774e-13
2.2903e-13
2.29302e-13
2.29352e-13
2.29366e-13
2.29467e-13
2.3009e-13
2.3083e-13
2.36861e-13
2.4192e-13
2.94752e-13
3.22876e-13
1.0378e-12
1.21251e-12
0.000900152
0.000205398
8.16818e-06
6.84624e-08
8.59375e-11
2.29249e-13
2.27775e-13
2.2903e-13
2.29302e-13
2.29351e-13
2.29366e-13
2.29465e-13
2.30088e-13
2.30827e-13
2.36856e-13
2.41914e-13
2.94736e-13
3.22858e-13
1.03771e-12
1.21242e-12
0.000830454
0.000188043
7.28534e-06
5.85363e-08
6.75296e-11
2.23875e-13
2.27816e-13
2.29041e-13
2.29307e-13
2.29355e-13
2.29375e-13
2.29497e-13
2.30106e-13
2.30833e-13
2.36758e-13
2.41755e-13
2.93879e-13
3.21814e-13
1.02837e-12
1.201e-12
0.0123424
0.0037571
0.00021201
2.26984e-06
3.77467e-09
9.91265e-12
9.28745e-12
9.34361e-12
9.35585e-12
9.35812e-12
9.35897e-12
9.36409e-12
9.38946e-12
9.41947e-12
9.6636e-12
9.86797e-12
1.19988e-11
1.31289e-11
4.16607e-11
4.84833e-11
0.013103
0.00402649
0.000232743
2.5776e-06
4.51159e-09
1.02174e-11
9.2856e-12
9.3431e-12
9.35563e-12
9.35795e-12
9.35863e-12
9.36279e-12
9.38873e-12
9.41927e-12
9.66772e-12
9.87459e-12
1.20341e-11
1.31718e-11
4.20394e-11
4.89446e-11
0.013104
0.00402583
0.000232532
2.57419e-06
4.50335e-09
1.02144e-11
9.28556e-12
9.34309e-12
9.35563e-12
9.35796e-12
9.35864e-12
9.36287e-12
9.38882e-12
9.41938e-12
9.66792e-12
9.87484e-12
1.20348e-11
1.31725e-11
4.20432e-11
4.89483e-11
0.0131088
0.0040196