/*--------------------------------*- C++ -*----------------------------------*\
  =========                 |
  \\      /  F ield         | OpenFOAM: The Open Source CFD Toolbox
   \\    /   O peration     | Website:  https://openfoam.org
    \\  /    A nd           | Version:  8
     \\/     M anipulation  |
\*---------------------------------------------------------------------------*/
FoamFile
{
    version     2.0;
    format      ascii;
    class       volScalarField;
    location    "0.6";
    object      p;
}
// * * * * * * * * * * * * * * * * * * * * * * * * * * * * * * * * * * * * * //

dimensions      [0 2 -2 0 0 0 0];

internalField   nonuniform List<scalar> 
180000
(
0.00144117
0.00134342
0.00142377
0.00115863
0.00132074
0.00143128
0.0013331
0.00141375
0.00114917
0.0013106
0.00143114
0.00133293
0.00141362
0.00114904
0.00131047
0.00143053
0.00133225
0.00141304
0.00114842
0.00130991
0.00143052
0.00133224
0.00141303
0.00114841
0.00130991
0.00143049
0.00133221
0.00141301
0.00114838
0.00130989
0.0014305
0.00133222
0.00141302
0.00114839
0.0013099
0.00143052
0.00133223
0.00141304
0.0011484
0.00130992
0.00143053
0.00133224
0.00141305
0.0011484
0.00130992
0.00143054
0.00133225
0.00141305
0.00114841
0.00130993
0.00143054
0.00133225
0.00141305
0.00114841
0.00130993
0.00143053
0.00133224
0.00141305
0.0011484
0.00130992
0.00143052
0.00133223
0.00141304
0.0011484
0.00130992
0.0014305
0.00133222
0.00141302
0.00114839
0.0013099
0.00143049
0.00133221
0.00141301
0.00114838
0.00130989
0.00143052
0.00133224
0.00141303
0.00114841
0.00130991
0.00143053
0.00133225
0.00141304
0.00114842
0.00130991
0.00143114
0.00133293
0.00141362
0.00114904
0.00131047
0.00143128
0.0013331
0.00141375
0.00114917
0.0013106
0.00144117
0.00134342
0.00142377
0.00115863
0.00132074
0.000791874
0.000811334
0.000797019
0.000806721
0.000814487
0.000794655
0.000812368
0.000799465
0.000805368
0.000815092
0.000794696
0.000812366
0.000799519
0.000805351
0.000815101
0.000794852
0.000812415
0.000799647
0.000805247
0.000815118
0.000794853
0.000812415
0.000799648
0.000805246
0.000815118
0.000794859
0.000812416
0.00079965
0.000805239
0.000815117
0.000794856
0.000812415
0.000799648
0.00080524
0.000815116
0.00079485
0.000812413
0.000799643
0.000805241
0.000815115
0.000794848
0.000812413
0.000799641
0.000805242
0.000815115
0.000794846
0.000812412
0.000799639
0.000805243
0.000815114
0.000794846
0.000812412
0.000799639
0.000805243
0.000815114
0.000794848
0.000812413
0.000799641
0.000805242
0.000815115
0.00079485
0.000812413
0.000799643
0.000805241
0.000815115
0.000794856
0.000812415
0.000799648
0.00080524
0.000815116
0.000794859
0.000812416
0.00079965
0.000805239
0.000815117
0.000794853
0.000812415
0.000799648
0.000805246
0.000815118
0.000794852
0.000812415
0.000799647
0.000805247
0.000815118
0.000794696
0.000812366
0.000799519
0.000805351
0.000815101
0.000794655
0.000812368
0.000799465
0.000805368
0.000815092
0.000791874
0.000811334
0.000797019
0.000806721
0.000814487
0.000634919
0.000622015
0.000633084
0.000597489
0.00062397
0.000633447
0.000620849
0.000631674
0.000595694
0.000622821
0.000633428
0.000620818
0.000631674
0.000595671
0.000622808
0.000633323
0.000620722
0.000631577
0.000595532
0.000622727
0.000633322
0.00062072
0.000631576
0.00059553
0.000622726
0.000633315
0.000620713
0.000631571
0.00059552
0.000622721
0.000633316
0.000620714
0.000631572
0.000595521
0.000622722
0.000633319
0.000620716
0.000631575
0.000595524
0.000622724
0.00063332
0.000620716
0.000631576
0.000595525
0.000622724
0.000633321
0.000620717
0.000631577
0.000595526
0.000622725
0.000633321
0.000620717
0.000631577
0.000595526
0.000622725
0.00063332
0.000620716
0.000631576
0.000595525
0.000622724
0.000633319
0.000620716
0.000631575
0.000595524
0.000622724
0.000633316
0.000620714
0.000631572
0.000595521
0.000622722
0.000633315
0.000620713
0.000631571
0.00059552
0.000622721
0.000633322
0.00062072
0.000631576
0.00059553
0.000622726
0.000633323
0.000620722
0.000631577
0.000595532
0.000622727
0.000633428
0.000620818
0.000631674
0.000595671
0.000622808
0.000633447
0.000620849
0.000631674
0.000595694
0.000622821
0.000634919
0.000622015
0.000633084
0.000597489
0.00062397
0.000689219
0.000658004
0.000684918
0.000594826
0.000658251
0.000686207
0.000654709
0.000681827
0.00059149
0.000655037
0.000686163
0.000654646
0.000681801
0.000591446
0.000654996
0.000685952
0.000654401
0.000681596
0.0005912
0.000654793
0.00068595
0.000654398
0.000681594
0.000591196
0.000654791
0.000685938
0.000654383
0.000681584
0.000591181
0.000654782
0.000685941
0.000654386
0.000681587
0.000591183
0.000654785
0.000685946
0.000654391
0.000681593
0.000591188
0.000654791
0.000685948
0.000654393
0.000681595
0.00059119
0.000654793
0.000685951
0.000654396
0.000681598
0.000591192
0.000654795
0.000685951
0.000654396
0.000681598
0.000591192
0.000654795
0.000685948
0.000654393
0.000681595
0.00059119
0.000654793
0.000685946
0.000654391
0.000681593
0.000591188
0.000654791
0.000685941
0.000654386
0.000681587
0.000591183
0.000654785
0.000685938
0.000654383
0.000681584
0.000591181
0.000654782
0.00068595
0.000654398
0.000681594
0.000591196
0.000654791
0.000685952
0.000654401
0.000681596
0.0005912
0.000654793
0.000686163
0.000654646
0.000681801
0.000591446
0.000654996
0.000686207
0.000654709
0.000681827
0.00059149
0.000655037
0.000689219
0.000658004
0.000684918
0.000594826
0.000658251
0.000717679
0.000689214
0.000714464
0.000624244
0.00069237
0.000715116
0.000686068
0.000711779
0.000620798
0.000689296
0.000715079
0.000686008
0.000711756
0.000620752
0.000689255
0.000714886
0.000685763
0.000711565
0.00062049
0.00068905
0.000714883
0.00068576
0.000711562
0.000620485
0.000689048
0.000714871
0.000685744
0.000711552
0.000620469
0.000689038
0.000714874
0.000685747
0.000711555
0.000620471
0.000689042
0.000714879
0.000685752
0.00071156
0.000620476
0.000689047
0.000714881
0.000685754
0.000711562
0.000620478
0.000689049
0.000714883
0.000685757
0.000711565
0.00062048
0.000689052
0.000714883
0.000685757
0.000711565
0.00062048
0.000689052
0.000714881
0.000685754
0.000711562
0.000620478
0.000689049
0.000714879
0.000685752
0.00071156
0.000620476
0.000689047
0.000714874
0.000685747
0.000711555
0.000620471
0.000689042
0.000714871
0.000685744
0.000711552
0.000620469
0.000689038
0.000714883
0.00068576
0.000711562
0.000620485
0.000689048
0.000714886
0.000685763
0.000711565
0.00062049
0.00068905
0.000715079
0.000686008
0.000711756
0.000620752
0.000689255
0.000715116
0.000686068
0.000711779
0.000620798
0.000689296
0.000717679
0.000689214
0.000714464
0.000624244
0.00069237
0.000715887
0.000691551
0.000713785
0.000633112
0.000699125
0.000713769
0.000688856
0.000711556
0.00062996
0.000696523
0.000713737
0.000688803
0.000711538
0.000629918
0.000696488
0.000713563
0.000688579
0.000711365
0.000629666
0.000696299
0.000713561
0.000688576
0.000711363
0.000629662
0.000696297
0.000713549
0.00068856
0.000711353
0.000629645
0.000696287
0.000713551
0.000688563
0.000711356
0.000629648
0.00069629
0.000713555
0.000688567
0.00071136
0.000629652
0.000696294
0.000713557
0.000688569
0.000711361
0.000629654
0.000696296
0.000713559
0.000688571
0.000711363
0.000629656
0.000696299
0.000713559
0.000688571
0.000711363
0.000629656
0.000696299
0.000713557
0.000688569
0.000711361
0.000629654
0.000696296
0.000713555
0.000688567
0.00071136
0.000629652
0.000696294
0.000713551
0.000688563
0.000711356
0.000629648
0.00069629
0.000713549
0.00068856
0.000711353
0.000629645
0.000696287
0.000713561
0.000688576
0.000711363
0.000629662
0.000696297
0.000713563
0.000688579
0.000711365
0.000629666
0.000696299
0.000713737
0.000688803
0.000711538
0.000629918
0.000696488
0.000713769
0.000688856
0.000711556
0.00062996
0.000696523
0.000715887
0.000691551
0.000713785
0.000633112
0.000699125
0.000709468
0.000685927
0.000707826
0.000630423
0.000697793
0.000707423
0.00068338
0.00070569
0.000627445
0.000695384
0.000707392
0.000683331
0.000705671
0.000627405
0.000695351
0.000707216
0.000683109
0.000705498
0.000627157
0.000695165
0.000707213
0.000683105
0.000705495
0.000627153
0.000695162
0.000707201
0.00068309
0.000705484
0.000627135
0.000695152
0.000707203
0.000683092
0.000705487
0.000627138
0.000695154
0.000707207
0.000683096
0.000705491
0.000627142
0.000695159
0.000707208
0.000683098
0.000705492
0.000627144
0.000695161
0.00070721
0.0006831
0.000705494
0.000627146
0.000695163
0.00070721
0.0006831
0.000705494
0.000627146
0.000695163
0.000707208
0.000683098
0.000705492
0.000627144
0.000695161
0.000707207
0.000683096
0.000705491
0.000627142
0.000695159
0.000707203
0.000683092
0.000705487
0.000627138
0.000695154
0.000707201
0.00068309
0.000705484
0.000627135
0.000695152
0.000707213
0.000683105
0.000705495
0.000627153
0.000695162
0.000707216
0.000683109
0.000705498
0.000627157
0.000695165
0.000707392
0.000683331
0.000705671
0.000627405
0.000695351
0.000707423
0.00068338
0.00070569
0.000627445
0.000695384
0.000709468
0.000685927
0.000707826
0.000630423
0.000697793
0.000706368
0.000682531
0.000705011
0.000627575
0.000698276
0.000704304
0.000680001
0.000702867
0.00062466
0.000695926
0.000704272
0.000679953
0.000702847
0.000624621
0.000695893
0.000704089
0.000679725
0.000702667
0.000624369
0.000695702
0.000704086
0.000679721
0.000702664
0.000624365
0.0006957
0.000704072
0.000679704
0.000702652
0.000624347
0.000695688
0.000704075
0.000679707
0.000702655
0.00062435
0.000695691
0.000704078
0.00067971
0.000702659
0.000624354
0.000695695
0.00070408
0.000679712
0.00070266
0.000624355
0.000695697
0.000704082
0.000679714
0.000702662
0.000624358
0.000695699
0.000704082
0.000679714
0.000702662
0.000624358
0.000695699
0.00070408
0.000679712
0.00070266
0.000624355
0.000695697
0.000704078
0.00067971
0.000702659
0.000624354
0.000695695
0.000704075
0.000679707
0.000702655
0.00062435
0.000695691
0.000704072
0.000679704
0.000702652
0.000624347
0.000695688
0.000704086
0.000679721
0.000702664
0.000624365
0.0006957
0.000704089
0.000679725
0.000702667
0.000624369
0.000695702
0.000704272
0.000679953
0.000702847
0.000624621
0.000695893
0.000704304
0.000680001
0.000702867
0.00062466
0.000695926
0.000706368
0.000682531
0.000705011
0.000627575
0.000698276
0.000705061
0.000681167
0.000704044
0.000626717
0.00070039
0.000703014
0.000678663
0.000701922
0.000623848
0.000698093
0.000702982
0.000678616
0.000701901
0.00062381
0.000698061
0.000702793
0.000678383
0.000701716
0.000623555
0.000697866
0.00070279
0.000678379
0.000701713
0.00062355
0.000697863
0.000702776
0.000678361
0.0007017
0.000623532
0.000697851
0.000702778
0.000678364
0.000701703
0.000623534
0.000697853
0.000702781
0.000678367
0.000701707
0.000623538
0.000697858
0.000702783
0.000678369
0.000701708
0.00062354
0.00069786
0.000702785
0.000678371
0.00070171
0.000623542
0.000697862
0.000702785
0.000678371
0.00070171
0.000623542
0.000697862
0.000702783
0.000678369
0.000701708
0.00062354
0.00069786
0.000702781
0.000678367
0.000701707
0.000623538
0.000697858
0.000702778
0.000678364
0.000701703
0.000623534
0.000697853
0.000702776
0.000678361
0.0007017
0.000623532
0.000697851
0.00070279
0.000678379
0.000701713
0.00062355
0.000697863
0.000702793
0.000678383
0.000701716
0.000623555
0.000697866
0.000702982
0.000678616
0.000701901
0.00062381
0.000698061
0.000703014
0.000678663
0.000701922
0.000623848
0.000698093
0.000705061
0.000681167
0.000704044
0.000626717
0.00070039
0.000703784
0.000680093
0.000703144
0.000626634
0.000702432
0.000701779
0.000677641
0.000701071
0.000623825
0.000700195
0.000701747
0.000677596
0.00070105
0.000623787
0.000700163
0.000701554
0.000677359
0.00070086
0.000623529
0.000699964
0.000701551
0.000677355
0.000700857
0.000623525
0.000699962
0.000701536
0.000677337
0.000700844
0.000623506
0.000699949
0.000701538
0.000677339
0.000700846
0.000623508
0.000699951
0.000701542
0.000677342
0.00070085
0.000623512
0.000699955
0.000701543
0.000677344
0.000700852
0.000623514
0.000699957
0.000701545
0.000677346
0.000700854
0.000623516
0.000699959
0.000701545
0.000677346
0.000700854
0.000623516
0.000699959
0.000701543
0.000677344
0.000700852
0.000623514
0.000699957
0.000701542
0.000677342
0.00070085
0.000623512
0.000699955
0.000701538
0.000677339
0.000700846
0.000623508
0.000699951
0.000701536
0.000677337
0.000700844
0.000623506
0.000699949
0.000701551
0.000677355
0.000700857
0.000623525
0.000699962
0.000701554
0.000677359
0.00070086
0.000623529
0.000699964
0.000701747
0.000677596
0.00070105
0.000623787
0.000700163
0.000701779
0.000677641
0.000701071
0.000623825
0.000700195
0.000703784
0.000680093
0.000703144
0.000626634
0.000702432
0.000702235
0.000678786
0.000701967
0.000626535
0.000703803
0.000700273
0.000676391
0.000699944
0.00062379
0.000701608
0.000700241
0.000676347
0.000699922
0.000623753
0.000701576
0.000700045
0.000676108
0.00069973
0.000623493
0.000701374
0.000700042
0.000676104
0.000699727
0.000623489
0.000701371
0.000700026
0.000676085
0.000699713
0.000623469
0.000701357
0.000700028
0.000676087
0.000699715
0.000623471
0.00070136
0.000700032
0.000676091
0.000699719
0.000623475
0.000701364
0.000700033
0.000676093
0.000699721
0.000623477
0.000701366
0.000700035
0.000676095
0.000699723
0.000623479
0.000701368
0.000700035
0.000676095
0.000699723
0.000623479
0.000701368
0.000700033
0.000676093
0.000699721
0.000623477
0.000701366
0.000700032
0.000676091
0.000699719
0.000623475
0.000701364
0.000700028
0.000676087
0.000699715
0.000623471
0.00070136
0.000700026
0.000676085
0.000699713
0.000623469
0.000701357
0.000700042
0.000676104
0.000699727
0.000623489
0.000701371
0.000700045
0.000676108
0.00069973
0.000623493
0.000701374
0.000700241
0.000676347
0.000699922
0.000623753
0.000701576
0.000700273
0.000676391
0.000699944
0.00062379
0.000701608
0.000702235
0.000678786
0.000701967
0.000626535
0.000703803
0.00070061
0.00067737
0.000700696
0.000626281
0.000701532
0.000698686
0.000675028
0.000698717
0.000623599
0.000699371
0.000698654
0.000674986
0.000698695
0.000623563
0.00069934
0.000698455
0.000674744
0.0006985
0.000623302
0.000699134
0.000698452
0.00067474
0.000698497
0.000623297
0.000699131
0.000698435
0.00067472
0.000698483
0.000623277
0.000699117
0.000698437
0.000674722
0.000698485
0.000623279
0.000699119
0.000698441
0.000674726
0.000698489
0.000623283
0.000699123
0.000698442
0.000674728
0.00069849
0.000623285
0.000699125
0.000698444
0.00067473
0.000698492
0.000623287
0.000699127
0.000698444
0.00067473
0.000698492
0.000623287
0.000699127
0.000698442
0.000674728
0.00069849
0.000623285
0.000699125
0.000698441
0.000674726
0.000698489
0.000623283
0.000699123
0.000698437
0.000674722
0.000698485
0.000623279
0.000699119
0.000698435
0.00067472
0.000698483
0.000623277
0.000699117
0.000698452
0.00067474
0.000698497
0.000623297
0.000699131
0.000698455
0.000674744
0.0006985
0.000623302
0.000699134
0.000698654
0.000674986
0.000698695
0.000623563
0.00069934
0.000698686
0.000675028
0.000698717
0.000623599
0.000699371
0.00070061
0.00067737
0.000700696
0.000626281
0.000701532
0.000699018
0.000675971
0.000699445
0.000625879
0.00069823
0.000697131
0.00067368
0.000697509
0.000623258
0.000696102
0.0006971
0.000673639
0.000697487
0.000623222
0.000696072
0.000696897
0.000673395
0.000697289
0.000622959
0.000695864
0.000696894
0.00067339
0.000697286
0.000622955
0.00069586
0.000696877
0.00067337
0.000697271
0.000622934
0.000695846
0.000696879
0.000673372
0.000697273
0.000622936
0.000695848
0.000696882
0.000673376
0.000697276
0.00062294
0.000695852
0.000696884
0.000673378
0.000697278
0.000622942
0.000695854
0.000696886
0.00067338
0.00069728
0.000622944
0.000695856
0.000696886
0.00067338
0.00069728
0.000622944
0.000695856
0.000696884
0.000673378
0.000697278
0.000622942
0.000695854
0.000696882
0.000673376
0.000697276
0.00062294
0.000695852
0.000696879
0.000673372
0.000697273
0.000622936
0.000695848
0.000696877
0.00067337
0.000697271
0.000622934
0.000695846
0.000696894
0.00067339
0.000697286
0.000622955
0.00069586
0.000696897
0.000673395
0.000697289
0.000622959
0.000695864
0.0006971
0.000673639
0.000697487
0.000623222
0.000696072
0.000697131
0.00067368
0.000697509
0.000623258
0.000696102
0.000699018
0.000675971
0.000699445
0.000625879
0.00069823
0.000697464
0.00067461
0.000698221
0.000625359
0.000695215
0.000695612
0.000672368
0.000696327
0.000622797
0.000693121
0.000695581
0.000672328
0.000696305
0.000622763
0.000693092
0.000695376
0.000672081
0.000696104
0.000622498
0.000692882
0.000695372
0.000672077
0.000696101
0.000622494
0.000692878
0.000695355
0.000672056
0.000696085
0.000622473
0.000692863
0.000695357
0.000672058
0.000696087
0.000622475
0.000692865
0.00069536
0.000672062
0.000696091
0.000622478
0.000692869
0.000695361
0.000672064
0.000696093
0.00062248
0.000692871
0.000695363
0.000672066
0.000696095
0.000622482
0.000692873
0.000695363
0.000672066
0.000696095
0.000622482
0.000692873
0.000695361
0.000672064
0.000696093
0.00062248
0.000692871
0.00069536
0.000672062
0.000696091
0.000622478
0.000692869
0.000695357
0.000672058
0.000696087
0.000622475
0.000692865
0.000695355
0.000672056
0.000696085
0.000622473
0.000692863
0.000695372
0.000672077
0.000696101
0.000622494
0.000692878
0.000695376
0.000672081
0.000696104
0.000622498
0.000692882
0.000695581
0.000672328
0.000696305
0.000622763
0.000693092
0.000695612
0.000672368
0.000696327
0.000622797
0.000693121
0.000697464
0.00067461
0.000698221
0.000625359
0.000695215
0.000695928
0.00067327
0.000697008
0.000624733
0.000692477
0.000694111
0.000671077
0.000695155
0.00062223
0.000690418
0.000694081
0.000671038
0.000695133
0.000622196
0.000690389
0.000693873
0.00067079
0.00069493
0.000621931
0.000690177
0.000693869
0.000670785
0.000694927
0.000621926
0.000690174
0.000693851
0.000670764
0.00069491
0.000621905
0.000690158
0.000693853
0.000670766
0.000694912
0.000621907
0.00069016
0.000693856
0.000670769
0.000694916
0.00062191
0.000690164
0.000693858
0.000670771
0.000694918
0.000621912
0.000690166
0.00069386
0.000670773
0.00069492
0.000621914
0.000690168
0.00069386
0.000670773
0.00069492
0.000621914
0.000690168
0.000693858
0.000670771
0.000694918
0.000621912
0.000690166
0.000693856
0.000670769
0.000694916
0.00062191
0.000690164
0.000693853
0.000670766
0.000694912
0.000621907
0.00069016
0.000693851
0.000670764
0.00069491
0.000621905
0.000690158
0.000693869
0.000670785
0.000694927
0.000621926
0.000690174
0.000693873
0.00067079
0.00069493
0.000621931
0.000690177
0.000694081
0.000671038
0.000695133
0.000622196
0.000690389
0.000694111
0.000671077
0.000695155
0.00062223
0.000690418
0.000695927
0.00067327
0.000697008
0.000624733
0.000692477
0.000694404
0.000671944
0.000695801
0.000624002
0.000689793
0.000692623
0.000669798
0.000693988
0.000621557
0.000687769
0.000692593
0.00066976
0.000693966
0.000621524
0.00068774
0.000692383
0.00066951
0.000693761
0.000621258
0.000687527
0.000692379
0.000669506
0.000693758
0.000621254
0.000687524
0.00069236
0.000669484
0.000693741
0.000621232
0.000687508
0.000692362
0.000669486
0.000693743
0.000621234
0.00068751
0.000692365
0.000669489
0.000693746
0.000621237
0.000687514
0.000692367
0.000669491
0.000693748
0.000621239
0.000687516
0.000692369
0.000669493
0.00069375
0.000621241
0.000687518
0.000692369
0.000669493
0.00069375
0.000621241
0.000687518
0.000692367
0.000669491
0.000693748
0.000621239
0.000687516
0.000692365
0.000669489
0.000693746
0.000621237
0.000687514
0.000692362
0.000669486
0.000693743
0.000621234
0.00068751
0.00069236
0.000669484
0.000693741
0.000621232
0.000687508
0.000692379
0.000669506
0.000693758
0.000621254
0.000687524
0.000692383
0.00066951
0.000693761
0.000621258
0.000687527
0.000692593
0.00066976
0.000693966
0.000621524
0.00068774
0.000692623
0.000669798
0.000693988
0.000621557
0.000687769
0.000694404
0.000671944
0.000695801
0.000624002
0.000689793
0.000692893
0.00067063
0.000694601
0.000623169
0.000687095
0.000691147
0.000668531
0.000692828
0.000620781
0.000685104
0.000691117
0.000668494
0.000692805
0.000620748
0.000685076
0.000690905
0.000668243
0.000692599
0.000620482
0.000684862
0.000690901
0.000668238
0.000692596
0.000620478
0.000684859
0.000690882
0.000668216
0.000692578
0.000620455
0.000684842
0.000690884
0.000668218
0.00069258
0.000620457
0.000684844
0.000690887
0.000668221
0.000692583
0.000620461
0.000684848
0.000690888
0.000668223
0.000692585
0.000620462
0.00068485
0.00069089
0.000668225
0.000692587
0.000620465
0.000684852
0.00069089
0.000668225
0.000692587
0.000620465
0.000684852
0.000690888
0.000668223
0.000692585
0.000620462
0.00068485
0.000690887
0.000668221
0.000692583
0.000620461
0.000684848
0.000690884
0.000668218
0.00069258
0.000620457
0.000684844
0.000690882
0.000668216
0.000692578
0.000620455
0.000684842
0.000690901
0.000668238
0.000692596
0.000620478
0.000684859
0.000690905
0.000668243
0.000692599
0.000620482
0.000684862
0.000691117
0.000668494
0.000692805
0.000620748
0.000685076
0.000691147
0.000668531
0.000692828
0.000620781
0.000685104
0.000692893
0.00067063
0.000694601
0.000623169
0.000687095
0.000691397
0.00066933
0.00069341
0.000622236
0.000684402
0.000689684
0.000667276
0.000691676
0.000619902
0.000682445
0.000689655
0.00066724
0.000691654
0.000619871
0.000682417
0.000689441
0.000666988
0.000691446
0.000619605
0.000682202
0.000689437
0.000666984
0.000691442
0.0006196
0.000682199
0.000689417
0.000666961
0.000691424
0.000619577
0.000682182
0.000689419
0.000666963
0.000691426
0.000619579
0.000682184
0.000689422
0.000666966
0.000691429
0.000619583
0.000682188
0.000689424
0.000666968
0.000691431
0.000619584
0.00068219
0.000689426
0.00066697
0.000691433
0.000619587
0.000682192
0.000689426
0.00066697
0.000691433
0.000619587
0.000682192
0.000689424
0.000666968
0.000691431
0.000619584
0.00068219
0.000689422
0.000666966
0.000691429
0.000619583
0.000682188
0.000689419
0.000666963
0.000691426
0.000619579
0.000682184
0.000689417
0.000666961
0.000691424
0.000619577
0.000682182
0.000689437
0.000666984
0.000691442
0.0006196
0.000682199
0.000689441
0.000666988
0.000691446
0.000619605
0.000682202
0.000689655
0.00066724
0.000691654
0.000619871
0.000682417
0.000689684
0.000667276
0.000691676
0.000619902
0.000682445
0.000691397
0.00066933
0.00069341
0.000622236
0.000684402
0.000689915
0.000668044
0.00069223
0.000621204
0.000681736
0.000688235
0.000666035
0.000690534
0.000618925
0.000679811
0.000688207
0.000666
0.000690512
0.000618894
0.000679784
0.000687991
0.000665747
0.000690302
0.000618628
0.000679569
0.000687987
0.000665743
0.000690299
0.000618624
0.000679566
0.000687966
0.000665719
0.00069028
0.0006186
0.000679548
0.000687968
0.000665721
0.000690282
0.000618602
0.00067955
0.000687971
0.000665724
0.000690285
0.000618606
0.000679554
0.000687973
0.000665726
0.000690287
0.000618608
0.000679556
0.000687975
0.000665728
0.000690289
0.00061861
0.000679558
0.000687975
0.000665728
0.000690289
0.00061861
0.000679558
0.000687973
0.000665726
0.000690287
0.000618608
0.000679556
0.000687971
0.000665724
0.000690285
0.000618606
0.000679554
0.000687968
0.000665721
0.000690282
0.000618602
0.00067955
0.000687966
0.000665719
0.00069028
0.0006186
0.000679548
0.000687987
0.000665743
0.000690299
0.000618624
0.000679566
0.000687991
0.000665747
0.000690302
0.000618628
0.000679569
0.000688207
0.000666
0.000690512
0.000618894
0.000679784
0.000688235
0.000666035
0.000690534
0.000618925
0.000679811
0.000689915
0.000668044
0.00069223
0.000621204
0.000681736
0.000688446
0.000666772
0.000691061
0.000620077
0.000678954
0.000686799
0.000664806
0.000689402
0.000617851
0.000677062
0.000686771
0.000664772
0.00068938
0.000617821
0.000677036
0.000686554
0.000664519
0.00068917
0.000617555
0.000676821
0.00068655
0.000664514
0.000689166
0.00061755
0.000676817
0.000686529
0.00066449
0.000689147
0.000617527
0.000676799
0.000686531
0.000664492
0.000689149
0.000617529
0.000676801
0.000686534
0.000664495
0.000689152
0.000617532
0.000676805
0.000686535
0.000664497
0.000689154
0.000617534
0.000676807
0.000686537
0.000664499
0.000689156
0.000617536
0.000676809
0.000686537
0.000664499
0.000689156
0.000617536
0.000676809
0.000686535
0.000664497
0.000689154
0.000617534
0.000676807
0.000686534
0.000664495
0.000689152
0.000617532
0.000676805
0.000686531
0.000664492
0.000689149
0.000617529
0.000676801
0.000686529
0.00066449
0.000689147
0.000617527
0.000676799
0.00068655
0.000664514
0.000689166
0.00061755
0.000676817
0.000686554
0.000664519
0.00068917
0.000617555
0.000676821
0.000686771
0.000664772
0.00068938
0.000617821
0.000677036
0.000686799
0.000664806
0.000689402
0.000617851
0.000677062
0.000688446
0.000666772
0.000691061
0.000620077
0.000678954
-1.65371e-05
2.10662e-05
4.38906e-06
8.39876e-07
2.65219e-07
1.79286e-07
1.64333e-07
1.62136e-07
1.61693e-07
1.61628e-07
1.6161e-07
1.61602e-07
1.61541e-07
1.6146e-07
1.60739e-07
1.60133e-07
1.53998e-07
1.51229e-07
1.12496e-07
1.08223e-07
-1.6822e-05
2.11614e-05
4.45955e-06
8.51004e-07
2.6722e-07
1.79591e-07
1.64366e-07
1.62124e-07
1.61673e-07
1.61607e-07
1.61588e-07
1.6158e-07
1.61518e-07
1.61436e-07
1.60705e-07
1.60094e-07
1.53897e-07
1.51122e-07
1.12214e-07
1.08028e-07
-1.68265e-05
2.11621e-05
4.46051e-06
8.51196e-07
2.67265e-07
1.79599e-07
1.64368e-07
1.62124e-07
1.61673e-07
1.61607e-07
1.61588e-07
1.61579e-07
1.61518e-07
1.61435e-07
1.60704e-07
1.60093e-07
1.53895e-07
1.5112e-07
1.12211e-07
1.08026e-07
-1.68458e-05
2.11624e-05
4.4629e-06
8.51678e-07
2.67381e-07
1.79619e-07
1.6437e-07
1.62124e-07
1.61672e-07
1.61605e-07
1.61587e-07
1.61578e-07
1.61517e-07
1.61434e-07
1.60702e-07
1.60091e-07
1.5389e-07
1.51115e-07
1.12201e-07
1.08021e-07
-1.68463e-05
2.11624e-05
4.46298e-06
8.51695e-07
2.67386e-07
1.7962e-07
1.64371e-07
1.62124e-07
1.61672e-07
1.61605e-07
1.61587e-07
1.61578e-07
1.61517e-07
1.61434e-07
1.60702e-07
1.60091e-07
1.5389e-07
1.51115e-07
1.12201e-07
1.08021e-07
-1.68475e-05
2.11623e-05
4.46308e-06
8.51718e-07
2.67391e-07
1.79621e-07
1.64371e-07
1.62124e-07
1.61672e-07
1.61605e-07
1.61587e-07
1.61578e-07
1.61516e-07
1.61434e-07
1.60702e-07
1.60091e-07
1.5389e-07
1.51115e-07
1.12201e-07
1.08021e-07
-1.68474e-05
2.11624e-05
4.46311e-06
8.51721e-07
2.67392e-07
1.79621e-07
1.64371e-07
1.62124e-07
1.61672e-07
1.61605e-07
1.61587e-07
1.61578e-07
1.61516e-07
1.61434e-07
1.60702e-07
1.60091e-07
1.5389e-07
1.51115e-07
1.12201e-07
1.08021e-07
-1.68473e-05
2.11625e-05
4.46314e-06
8.51725e-07
2.67393e-07
1.79621e-07
1.64371e-07
1.62124e-07
1.61672e-07
1.61605e-07
1.61587e-07
1.61578e-07
1.61516e-07
1.61434e-07
1.60702e-07
1.60091e-07
1.5389e-07
1.51115e-07
1.12201e-07
1.08021e-07
-1.68472e-05
2.11625e-05
4.46316e-06
8.51727e-07
2.67393e-07
1.79621e-07
1.64371e-07
1.62124e-07
1.61672e-07
1.61605e-07
1.61587e-07
1.61578e-07
1.61516e-07
1.61434e-07
1.60702e-07
1.60091e-07
1.5389e-07
1.51115e-07
1.12201e-07
1.08021e-07
-1.68472e-05
2.11626e-05
4.46317e-06
8.51728e-07
2.67393e-07
1.79621e-07
1.64371e-07
1.62124e-07
1.61672e-07
1.61605e-07
1.61587e-07
1.61578e-07
1.61516e-07
1.61434e-07
1.60702e-07
1.60091e-07
1.5389e-07
1.51115e-07
1.12201e-07
1.08021e-07
-1.68472e-05
2.11626e-05
4.46317e-06
8.51728e-07
2.67393e-07
1.79621e-07
1.64371e-07
1.62124e-07
1.61672e-07
1.61605e-07
1.61587e-07
1.61578e-07
1.61516e-07
1.61434e-07
1.60702e-07
1.60091e-07
1.5389e-07
1.51115e-07
1.12201e-07
1.08021e-07
-1.68472e-05
2.11625e-05
4.46316e-06
8.51727e-07
2.67393e-07
1.79621e-07
1.64371e-07
1.62124e-07
1.61672e-07
1.61605e-07
1.61587e-07
1.61578e-07
1.61516e-07
1.61434e-07
1.60702e-07
1.60091e-07
1.5389e-07
1.51115e-07
1.12201e-07
1.08021e-07
-1.68473e-05
2.11625e-05
4.46314e-06
8.51725e-07
2.67393e-07
1.79621e-07
1.64371e-07
1.62124e-07
1.61672e-07
1.61605e-07
1.61587e-07
1.61578e-07
1.61516e-07
1.61434e-07
1.60702e-07
1.60091e-07
1.5389e-07
1.51115e-07
1.12201e-07
1.08021e-07
-1.68474e-05
2.11624e-05
4.46311e-06
8.51721e-07
2.67392e-07
1.79621e-07
1.64371e-07
1.62124e-07
1.61672e-07
1.61605e-07
1.61587e-07
1.61578e-07
1.61516e-07
1.61434e-07
1.60702e-07
1.60091e-07
1.5389e-07
1.51115e-07
1.12201e-07
1.08021e-07
-1.68475e-05
2.11623e-05
4.46308e-06
8.51718e-07
2.67391e-07
1.79621e-07
1.64371e-07
1.62124e-07
1.61672e-07
1.61605e-07
1.61587e-07
1.61578e-07
1.61516e-07
1.61434e-07
1.60702e-07
1.60091e-07
1.5389e-07
1.51115e-07
1.12201e-07
1.08021e-07
-1.68463e-05
2.11624e-05
4.46298e-06
8.51695e-07
2.67386e-07
1.7962e-07
1.64371e-07
1.62124e-07
1.61672e-07
1.61605e-07
1.61587e-07
1.61578e-07
1.61517e-07
1.61434e-07
1.60702e-07
1.60091e-07
1.5389e-07
1.51115e-07
1.12201e-07
1.08021e-07
-1.68458e-05
2.11624e-05
4.4629e-06
8.51678e-07
2.67381e-07
1.79619e-07
1.6437e-07
1.62124e-07
1.61672e-07
1.61605e-07
1.61587e-07
1.61578e-07
1.61517e-07
1.61434e-07
1.60702e-07
1.60091e-07
1.5389e-07
1.51115e-07
1.12201e-07
1.08021e-07
-1.68265e-05
2.11621e-05
4.46051e-06
8.51196e-07
2.67265e-07
1.79599e-07
1.64368e-07
1.62124e-07
1.61673e-07
1.61607e-07
1.61588e-07
1.61579e-07
1.61518e-07
1.61435e-07
1.60704e-07
1.60093e-07
1.53895e-07
1.5112e-07
1.12211e-07
1.08026e-07
-1.6822e-05
2.11614e-05
4.45955e-06
8.51004e-07
2.6722e-07
1.79591e-07
1.64366e-07
1.62124e-07
1.61673e-07
1.61607e-07
1.61588e-07
1.6158e-07
1.61518e-07
1.61436e-07
1.60705e-07
1.60094e-07
1.53897e-07
1.51122e-07
1.12214e-07
1.08028e-07
-1.65371e-05
2.10662e-05
4.38906e-06
8.39876e-07
2.65219e-07
1.79286e-07
1.64333e-07
1.62136e-07
1.61693e-07
1.61628e-07
1.6161e-07
1.61602e-07
1.61541e-07
1.6146e-07
1.60739e-07
1.60133e-07
1.53998e-07
1.51229e-07
1.12496e-07
1.08223e-07
-1.64629e-05
2.12874e-05
4.42828e-06
8.46472e-07
2.66271e-07
1.79489e-07
1.64349e-07
1.62231e-07
1.61782e-07
1.61716e-07
1.61698e-07
1.61689e-07
1.61628e-07
1.61546e-07
1.60806e-07
1.60138e-07
1.53921e-07
1.5113e-07
1.11909e-07
1.07608e-07
-1.67382e-05
2.13844e-05
4.49947e-06
8.57708e-07
2.68294e-07
1.79797e-07
1.64382e-07
1.6222e-07
1.61763e-07
1.61695e-07
1.61676e-07
1.61668e-07
1.61605e-07
1.61522e-07
1.60771e-07
1.60098e-07
1.53819e-07
1.51021e-07
1.11623e-07
1.07408e-07
-1.67426e-05
2.13851e-05
4.50044e-06
8.57901e-07
2.68339e-07
1.79805e-07
1.64383e-07
1.6222e-07
1.61762e-07
1.61695e-07
1.61676e-07
1.61667e-07
1.61605e-07
1.61521e-07
1.60771e-07
1.60097e-07
1.53818e-07
1.51019e-07
1.1162e-07
1.07406e-07
-1.67614e-05
2.13854e-05
4.50286e-06
8.58388e-07
2.68456e-07
1.79825e-07
1.64386e-07
1.62219e-07
1.61761e-07
1.61694e-07
1.61675e-07