/*--------------------------------*- C++ -*----------------------------------*\
  =========                 |
  \\      /  F ield         | OpenFOAM: The Open Source CFD Toolbox
   \\    /   O peration     | Website:  https://openfoam.org
    \\  /    A nd           | Version:  8
     \\/     M anipulation  |
\*---------------------------------------------------------------------------*/
FoamFile
{
    version     2.0;
    format      ascii;
    class       volScalarField;
    location    "0.6";
    object      S1;
}
// * * * * * * * * * * * * * * * * * * * * * * * * * * * * * * * * * * * * * //

dimensions      [0 1 -1 0 0 0 0];

internalField   nonuniform List<scalar> 
180000
(
-8.29248e-40
-2.81576e-34
-9.05093e-29
-2.72872e-23
-7.6186e-18
-1.04373e-39
-3.53158e-34
-1.13072e-28
-3.3943e-23
-9.43511e-18
-1.0489e-39
-3.54894e-34
-1.13623e-28
-3.41069e-23
-9.48028e-18
-1.06316e-39
-3.59742e-34
-1.15181e-28
-3.45766e-23
-9.61155e-18
-1.06333e-39
-3.59804e-34
-1.15204e-28
-3.4584e-23
-9.61383e-18
-1.0635e-39
-3.59875e-34
-1.1523e-28
-3.45932e-23
-9.61681e-18
-1.06333e-39
-3.59819e-34
-1.15213e-28
-3.45885e-23
-9.61561e-18
-1.06313e-39
-3.59753e-34
-1.15193e-28
-3.45827e-23
-9.61409e-18
-1.06303e-39
-3.59721e-34
-1.15183e-28
-3.45799e-23
-9.61334e-18
-1.06296e-39
-3.59698e-34
-1.15176e-28
-3.45779e-23
-9.6128e-18
-1.06296e-39
-3.59698e-34
-1.15176e-28
-3.45779e-23
-9.6128e-18
-1.06303e-39
-3.59721e-34
-1.15183e-28
-3.45799e-23
-9.61334e-18
-1.06313e-39
-3.59753e-34
-1.15193e-28
-3.45827e-23
-9.61409e-18
-1.06333e-39
-3.59819e-34
-1.15213e-28
-3.45885e-23
-9.61562e-18
-1.0635e-39
-3.59875e-34
-1.1523e-28
-3.45932e-23
-9.61681e-18
-1.06333e-39
-3.59804e-34
-1.15204e-28
-3.4584e-23
-9.61383e-18
-1.06316e-39
-3.59742e-34
-1.15181e-28
-3.45766e-23
-9.61155e-18
-1.0489e-39
-3.54894e-34
-1.13623e-28
-3.41069e-23
-9.48028e-18
-1.04373e-39
-3.53158e-34
-1.13072e-28
-3.3943e-23
-9.43512e-18
-8.29249e-40
-2.81576e-34
-9.05093e-29
-2.72872e-23
-7.6186e-18
-1.04402e-39
-5.21596e-34
-3.87191e-28
-3.64372e-22
-4.99119e-16
-1.291e-39
-6.32453e-34
-4.61562e-28
-4.33911e-22
-5.96613e-16
-1.29696e-39
-6.35134e-34
-4.63341e-28
-4.3554e-22
-5.98866e-16
-1.31351e-39
-6.42749e-34
-4.68585e-28
-4.40501e-22
-6.05886e-16
-1.31371e-39
-6.42862e-34
-4.68674e-28
-4.40588e-22
-6.06012e-16
-1.31393e-39
-6.42987e-34
-4.68782e-28
-4.40702e-22
-6.06188e-16
-1.31374e-39
-6.42912e-34
-4.68738e-28
-4.40663e-22
-6.06133e-16
-1.31353e-39
-6.42826e-34
-4.68688e-28
-4.40615e-22
-6.06064e-16
-1.31342e-39
-6.42783e-34
-4.68662e-28
-4.4059e-22
-6.0603e-16
-1.31335e-39
-6.42755e-34
-4.68645e-28
-4.40573e-22
-6.06005e-16
-1.31335e-39
-6.42755e-34
-4.68645e-28
-4.40573e-22
-6.06005e-16
-1.31342e-39
-6.42783e-34
-4.68662e-28
-4.4059e-22
-6.0603e-16
-1.31353e-39
-6.42826e-34
-4.68688e-28
-4.40615e-22
-6.06064e-16
-1.31374e-39
-6.42912e-34
-4.68738e-28
-4.40663e-22
-6.06133e-16
-1.31393e-39
-6.42987e-34
-4.68782e-28
-4.40702e-22
-6.06188e-16
-1.31371e-39
-6.42862e-34
-4.68674e-28
-4.40588e-22
-6.06012e-16
-1.31351e-39
-6.42749e-34
-4.68585e-28
-4.40501e-22
-6.05886e-16
-1.29696e-39
-6.35134e-34
-4.63341e-28
-4.3554e-22
-5.98866e-16
-1.291e-39
-6.32453e-34
-4.61562e-28
-4.33911e-22
-5.96614e-16
-1.04402e-39
-5.21596e-34
-3.87191e-28
-3.64372e-22
-4.99119e-16
-2.18772e-38
-2.33242e-32
-2.8129e-26
-3.14066e-20
-4.50935e-14
-2.47943e-38
-2.66027e-32
-3.23349e-26
-3.64394e-20
-5.26495e-14
-2.48621e-38
-2.6677e-32
-3.24283e-26
-3.65489e-20
-5.28117e-14
-2.5061e-38
-2.69018e-32
-3.27195e-26
-3.68983e-20
-5.33403e-14
-2.50644e-38
-2.69057e-32
-3.27246e-26
-3.69042e-20
-5.33493e-14
-2.50676e-38
-2.69099e-32
-3.27307e-26
-3.69121e-20
-5.33624e-14
-2.50663e-38
-2.69084e-32
-3.27286e-26
-3.69094e-20
-5.33582e-14
-2.50653e-38
-2.69068e-32
-3.27264e-26
-3.69061e-20
-5.33531e-14
-2.50646e-38
-2.6906e-32
-3.27251e-26
-3.69045e-20
-5.33505e-14
-2.50643e-38
-2.69055e-32
-3.27244e-26
-3.69033e-20
-5.33487e-14
-2.50643e-38
-2.69055e-32
-3.27244e-26
-3.69033e-20
-5.33487e-14
-2.50646e-38
-2.6906e-32
-3.27251e-26
-3.69045e-20
-5.33505e-14
-2.50653e-38
-2.69068e-32
-3.27264e-26
-3.69061e-20
-5.33531e-14
-2.50663e-38
-2.69084e-32
-3.27286e-26
-3.69094e-20
-5.33582e-14
-2.50676e-38
-2.69099e-32
-3.27307e-26
-3.69121e-20
-5.33624e-14
-2.50644e-38
-2.69057e-32
-3.27246e-26
-3.69042e-20
-5.33493e-14
-2.5061e-38
-2.69018e-32
-3.27195e-26
-3.68983e-20
-5.33403e-14
-2.48621e-38
-2.6677e-32
-3.24283e-26
-3.65489e-20
-5.28117e-14
-2.47943e-38
-2.66027e-32
-3.2335e-26
-3.64394e-20
-5.26495e-14
-2.18772e-38
-2.33242e-32
-2.8129e-26
-3.14066e-20
-4.50935e-14
-9.18676e-37
-9.75135e-31
-1.1525e-24
-1.25031e-18
-1.74591e-12
-1.01358e-36
-1.08578e-30
-1.2942e-24
-1.41707e-18
-1.99074e-12
-1.01572e-36
-1.08819e-30
-1.29722e-24
-1.42053e-18
-1.99574e-12
-1.02208e-36
-1.09563e-30
-1.30683e-24
-1.43185e-18
-2.01248e-12
-1.02219e-36
-1.09576e-30
-1.30699e-24
-1.43204e-18
-2.01276e-12
-1.02229e-36
-1.09589e-30
-1.30719e-24
-1.43229e-18
-2.01317e-12
-1.02225e-36
-1.09584e-30
-1.30712e-24
-1.4322e-18
-2.01304e-12
-1.02223e-36
-1.0958e-30
-1.30705e-24
-1.4321e-18
-2.01288e-12
-1.02222e-36
-1.09578e-30
-1.30701e-24
-1.43204e-18
-2.0128e-12
-1.02222e-36
-1.09577e-30
-1.30699e-24
-1.43201e-18
-2.01274e-12
-1.02222e-36
-1.09577e-30
-1.30699e-24
-1.43201e-18
-2.01274e-12
-1.02222e-36
-1.09578e-30
-1.30701e-24
-1.43204e-18
-2.0128e-12
-1.02223e-36
-1.0958e-30
-1.30705e-24
-1.4321e-18
-2.01288e-12
-1.02225e-36
-1.09584e-30
-1.30712e-24
-1.4322e-18
-2.01304e-12
-1.02229e-36
-1.09589e-30
-1.30719e-24
-1.43229e-18
-2.01317e-12
-1.02219e-36
-1.09576e-30
-1.30699e-24
-1.43204e-18
-2.01276e-12
-1.02208e-36
-1.09563e-30
-1.30683e-24
-1.43185e-18
-2.01248e-12
-1.01572e-36
-1.08819e-30
-1.29722e-24
-1.42053e-18
-1.99574e-12
-1.01358e-36
-1.08578e-30
-1.2942e-24
-1.41707e-18
-1.99074e-12
-9.18676e-37
-9.75135e-31
-1.1525e-24
-1.25031e-18
-1.74591e-12
-2.25665e-35
-2.30224e-29
-2.61821e-23
-2.7242e-17
-3.65905e-11
-2.43161e-35
-2.50327e-29
-2.87034e-23
-3.01339e-17
-4.07035e-11
-2.43558e-35
-2.50762e-29
-2.8756e-23
-3.01922e-17
-4.07844e-11
-2.44723e-35
-2.52098e-29
-2.89248e-23
-3.03853e-17
-4.10609e-11
-2.44744e-35
-2.52122e-29
-2.89278e-23
-3.03885e-17
-4.10656e-11
-2.44759e-35
-2.52143e-29
-2.89312e-23
-3.03927e-17
-4.10724e-11
-2.44755e-35
-2.52136e-29
-2.89301e-23
-3.03913e-17
-4.10703e-11
-2.44755e-35
-2.52131e-29
-2.89291e-23
-3.03896e-17
-4.10677e-11
-2.44753e-35
-2.52127e-29
-2.89284e-23
-3.03887e-17
-4.10663e-11
-2.44754e-35
-2.52126e-29
-2.89281e-23
-3.03882e-17
-4.10654e-11
-2.44754e-35
-2.52126e-29
-2.89281e-23
-3.03882e-17
-4.10654e-11
-2.44753e-35
-2.52127e-29
-2.89284e-23
-3.03887e-17
-4.10663e-11
-2.44755e-35
-2.52131e-29
-2.89291e-23
-3.03896e-17
-4.10677e-11
-2.44755e-35
-2.52136e-29
-2.89301e-23
-3.03913e-17
-4.10703e-11
-2.44759e-35
-2.52143e-29
-2.89312e-23
-3.03927e-17
-4.10724e-11
-2.44744e-35
-2.52122e-29
-2.89278e-23
-3.03885e-17
-4.10656e-11
-2.44723e-35
-2.52098e-29
-2.89248e-23
-3.03853e-17
-4.10609e-11
-2.43558e-35
-2.50762e-29
-2.8756e-23
-3.01922e-17
-4.07844e-11
-2.43162e-35
-2.50328e-29
-2.87034e-23
-3.0134e-17
-4.07035e-11
-2.25665e-35
-2.30224e-29
-2.61821e-23
-2.7242e-17
-3.65905e-11
-3.54465e-34
-3.44394e-28
-3.7343e-22
-3.68934e-16
-4.7167e-10
-3.72808e-34
-3.65398e-28
-3.99315e-22
-3.97875e-16
-5.11218e-10
-3.73248e-34
-3.65863e-28
-3.99857e-22
-3.9845e-16
-5.11977e-10
-3.74486e-34
-3.67263e-28
-4.01587e-22
-4.00363e-16
-5.14606e-10
-3.74512e-34
-3.6729e-28
-4.0162e-22
-4.00397e-16
-5.14652e-10
-3.74524e-34
-3.67311e-28
-4.01653e-22
-4.00438e-16
-5.14717e-10
-3.74523e-34
-3.67305e-28
-4.01645e-22
-4.00425e-16
-5.14699e-10
-3.7453e-34
-3.67304e-28
-4.01637e-22
-4.0041e-16
-5.14675e-10
-3.7453e-34
-3.67302e-28
-4.01632e-22
-4.00402e-16
-5.14663e-10
-3.74534e-34
-3.67303e-28
-4.01631e-22
-4.00397e-16
-5.14655e-10
-3.74534e-34
-3.67303e-28
-4.01631e-22
-4.00397e-16
-5.14655e-10
-3.7453e-34
-3.67302e-28
-4.01632e-22
-4.00402e-16
-5.14663e-10
-3.7453e-34
-3.67304e-28
-4.01637e-22
-4.0041e-16
-5.14675e-10
-3.74523e-34
-3.67305e-28
-4.01645e-22
-4.00425e-16
-5.14699e-10
-3.74524e-34
-3.67311e-28
-4.01653e-22
-4.00438e-16
-5.14717e-10
-3.74512e-34
-3.6729e-28
-4.0162e-22
-4.00397e-16
-5.14652e-10
-3.74486e-34
-3.67263e-28
-4.01587e-22
-4.00363e-16
-5.14606e-10
-3.73248e-34
-3.65863e-28
-3.99857e-22
-3.9845e-16
-5.11977e-10
-3.72808e-34
-3.65398e-28
-3.99315e-22
-3.97875e-16
-5.11218e-10
-3.54465e-34
-3.44394e-28
-3.7343e-22
-3.68934e-16
-4.7167e-10
-3.83354e-33
-3.51377e-27
-3.59547e-21
-3.33289e-15
-4.00187e-09
-3.93265e-33
-3.63461e-27
-3.74592e-21
-3.49931e-15
-4.21824e-09
-3.93555e-33
-3.63759e-27
-3.74924e-21
-3.50266e-15
-4.22234e-09
-3.94282e-33
-3.64597e-27
-3.75955e-21
-3.51371e-15
-4.23671e-09
-3.94303e-33
-3.64618e-27
-3.75977e-21
-3.51392e-15
-4.23698e-09
-3.94305e-33
-3.64627e-27
-3.75996e-21
-3.51416e-15
-4.23736e-09
-3.9431e-33
-3.64627e-27
-3.75994e-21
-3.5141e-15
-4.23728e-09
-3.94325e-33
-3.64634e-27
-3.75995e-21
-3.51404e-15
-4.23717e-09
-3.94329e-33
-3.64635e-27
-3.75994e-21
-3.514e-15
-4.23712e-09
-3.94336e-33
-3.64638e-27
-3.75995e-21
-3.51398e-15
-4.23708e-09
-3.94336e-33
-3.64638e-27
-3.75995e-21
-3.51398e-15
-4.23708e-09
-3.94329e-33
-3.64635e-27
-3.75994e-21
-3.514e-15
-4.23712e-09
-3.94325e-33
-3.64634e-27
-3.75995e-21
-3.51404e-15
-4.23717e-09
-3.9431e-33
-3.64627e-27
-3.75994e-21
-3.5141e-15
-4.23728e-09
-3.94305e-33
-3.64627e-27
-3.75996e-21
-3.51416e-15
-4.23736e-09
-3.94303e-33
-3.64618e-27
-3.75977e-21
-3.51392e-15
-4.23698e-09
-3.94282e-33
-3.64597e-27
-3.75955e-21
-3.51371e-15
-4.23671e-09
-3.93555e-33
-3.63759e-27
-3.74924e-21
-3.50266e-15
-4.22234e-09
-3.93265e-33
-3.63461e-27
-3.74592e-21
-3.49931e-15
-4.21824e-09
-3.83354e-33
-3.51377e-27
-3.59547e-21
-3.33289e-15
-4.00187e-09
-2.97195e-32
-2.53769e-26
-2.41503e-20
-2.06301e-14
-2.27652e-08
-2.97143e-32
-2.55645e-26
-2.44777e-20
-2.10426e-14
-2.32645e-08
-2.97231e-32
-2.55737e-26
-2.44876e-20
-2.10519e-14
-2.32742e-08
-2.97337e-32
-2.55927e-26
-2.45144e-20
-2.10811e-14
-2.33088e-08
-2.97348e-32
-2.55937e-26
-2.45154e-20
-2.10819e-14
-2.33097e-08
-2.97342e-32
-2.55936e-26
-2.45158e-20
-2.10825e-14
-2.33108e-08
-2.97351e-32
-2.5594e-26
-2.45161e-20
-2.10826e-14
-2.33108e-08
-2.97368e-32
-2.5595e-26
-2.45167e-20
-2.10827e-14
-2.33108e-08
-2.97375e-32
-2.55954e-26
-2.45169e-20
-2.10827e-14
-2.33108e-08
-2.97382e-32
-2.55958e-26
-2.45172e-20
-2.10827e-14
-2.33107e-08
-2.97382e-32
-2.55958e-26
-2.45172e-20
-2.10827e-14
-2.33107e-08
-2.97375e-32
-2.55954e-26
-2.45169e-20
-2.10827e-14
-2.33108e-08
-2.97368e-32
-2.5595e-26
-2.45167e-20
-2.10827e-14
-2.33108e-08
-2.97351e-32
-2.5594e-26
-2.45161e-20
-2.10826e-14
-2.33108e-08
-2.97342e-32
-2.55936e-26
-2.45158e-20
-2.10825e-14
-2.33108e-08
-2.97348e-32
-2.55937e-26
-2.45154e-20
-2.10819e-14
-2.33097e-08
-2.97337e-32
-2.55927e-26
-2.45144e-20
-2.10811e-14
-2.33088e-08
-2.97231e-32
-2.55737e-26
-2.44876e-20
-2.10519e-14
-2.32742e-08
-2.97143e-32
-2.55646e-26
-2.44777e-20
-2.10426e-14
-2.32645e-08
-2.97195e-32
-2.53769e-26
-2.41503e-20
-2.06301e-14
-2.27652e-08
-1.66179e-31
-1.29429e-25
-1.11517e-19
-8.46204e-14
-8.15767e-08
-1.61836e-31
-1.2683e-25
-1.09717e-19
-8.35212e-14
-8.02562e-08
-1.61812e-31
-1.26816e-25
-1.09704e-19
-8.35094e-14
-8.02348e-08
-1.61626e-31
-1.26704e-25
-1.09629e-19
-8.34571e-14
-8.01639e-08
-1.61629e-31
-1.26706e-25
-1.09631e-19
-8.34581e-14
-8.01645e-08
-1.61622e-31
-1.26702e-25
-1.0963e-19
-8.3457e-14
-8.01641e-08
-1.6163e-31
-1.26707e-25
-1.09633e-19
-8.34589e-14
-8.0166e-08
-1.61643e-31
-1.26715e-25
-1.09638e-19
-8.34616e-14
-8.01685e-08
-1.61648e-31
-1.26718e-25
-1.09641e-19
-8.34627e-14
-8.01695e-08
-1.61654e-31
-1.26721e-25
-1.09643e-19
-8.34638e-14
-8.01704e-08
-1.61654e-31
-1.26721e-25
-1.09643e-19
-8.34638e-14
-8.01704e-08
-1.61648e-31
-1.26718e-25
-1.09641e-19
-8.34627e-14
-8.01695e-08
-1.61643e-31
-1.26715e-25
-1.09638e-19
-8.34616e-14
-8.01685e-08
-1.6163e-31
-1.26707e-25
-1.09633e-19
-8.34589e-14
-8.0166e-08
-1.61622e-31
-1.26702e-25
-1.0963e-19
-8.3457e-14
-8.01641e-08
-1.61629e-31
-1.26706e-25
-1.09631e-19
-8.34581e-14
-8.01645e-08
-1.61626e-31
-1.26704e-25
-1.09629e-19
-8.34571e-14
-8.01639e-08
-1.61812e-31
-1.26816e-25
-1.09704e-19
-8.35094e-14
-8.02348e-08
-1.61836e-31
-1.2683e-25
-1.09717e-19
-8.35212e-14
-8.02562e-08
-1.66179e-31
-1.29429e-25
-1.11517e-19
-8.46204e-14
-8.15767e-08
-6.40517e-31
-4.33545e-25
-3.14224e-19
-1.86658e-13
-1.22365e-07
-6.08029e-31
-4.12971e-25
-2.98927e-19
-1.76123e-13
-1.1146e-07
-6.07677e-31
-4.12721e-25
-2.98715e-19
-1.75953e-13
-1.11267e-07
-6.06093e-31
-4.11672e-25
-2.97905e-19
-1.75349e-13
-1.10613e-07
-6.06097e-31
-4.11673e-25
-2.97904e-19
-1.75345e-13
-1.10607e-07
-6.06057e-31
-4.11648e-25
-2.97888e-19
-1.75333e-13
-1.10594e-07
-6.06098e-31
-4.11672e-25
-2.97905e-19
-1.75342e-13
-1.10603e-07
-6.06163e-31
-4.11709e-25
-2.97929e-19
-1.75355e-13
-1.10615e-07
-6.06189e-31
-4.11724e-25
-2.97939e-19
-1.75361e-13
-1.1062e-07
-6.06215e-31
-4.11738e-25
-2.97948e-19
-1.75366e-13
-1.10624e-07
-6.06215e-31
-4.11738e-25
-2.97948e-19
-1.75366e-13
-1.10624e-07
-6.06189e-31
-4.11724e-25
-2.97939e-19
-1.75361e-13
-1.1062e-07
-6.06163e-31
-4.11709e-25
-2.97929e-19
-1.75355e-13
-1.10615e-07
-6.06098e-31
-4.11672e-25
-2.97905e-19
-1.75342e-13
-1.10603e-07
-6.06057e-31
-4.11648e-25
-2.97888e-19
-1.75333e-13
-1.10594e-07
-6.06097e-31
-4.11673e-25
-2.97904e-19
-1.75345e-13
-1.10607e-07
-6.06093e-31
-4.11672e-25
-2.97905e-19
-1.75349e-13
-1.10613e-07
-6.07677e-31
-4.12721e-25
-2.98715e-19
-1.75953e-13
-1.11267e-07
-6.08029e-31
-4.12971e-25
-2.98927e-19
-1.76123e-13
-1.1146e-07
-6.40517e-31
-4.33545e-25
-3.14224e-19
-1.86658e-13
-1.22365e-07
-1.86774e-30
-1.08688e-24
-6.54929e-19
-3.01304e-13
-1.30551e-07
-1.74495e-30
-1.01925e-24
-6.14012e-19
-2.81154e-13
-1.19666e-07
-1.74347e-30
-1.01836e-24
-6.1342e-19
-2.80827e-13
-1.19475e-07
-1.7374e-30
-1.01487e-24
-6.11235e-19
-2.79676e-13
-1.18831e-07
-1.73741e-30
-1.01486e-24
-6.11227e-19
-2.79668e-13
-1.18826e-07
-1.73728e-30
-1.01479e-24
-6.11189e-19
-2.79646e-13
-1.18815e-07
-1.73742e-30
-1.01486e-24
-6.11229e-19
-2.79664e-13
-1.18824e-07
-1.73763e-30
-1.01497e-24
-6.11289e-19
-2.79688e-13
-1.18836e-07
-1.73772e-30
-1.01501e-24
-6.11313e-19
-2.79699e-13
-1.18841e-07
-1.73781e-30
-1.01506e-24
-6.11335e-19
-2.79707e-13
-1.18845e-07
-1.73781e-30
-1.01506e-24
-6.11335e-19
-2.79707e-13
-1.18845e-07
-1.73772e-30
-1.01501e-24
-6.11313e-19
-2.79699e-13
-1.18841e-07
-1.73763e-30
-1.01497e-24
-6.11289e-19
-2.79688e-13
-1.18836e-07
-1.73742e-30
-1.01486e-24
-6.11229e-19
-2.79664e-13
-1.18824e-07
-1.73728e-30
-1.01479e-24
-6.11189e-19
-2.79646e-13
-1.18815e-07
-1.73741e-30
-1.01486e-24
-6.11227e-19
-2.79668e-13
-1.18826e-07
-1.7374e-30
-1.01487e-24
-6.11235e-19
-2.79676e-13
-1.18831e-07
-1.74347e-30
-1.01836e-24
-6.1342e-19
-2.80827e-13
-1.19475e-07
-1.74495e-30
-1.01925e-24
-6.14012e-19
-2.81154e-13
-1.19666e-07
-1.86774e-30
-1.08688e-24
-6.54929e-19
-3.01304e-13
-1.30551e-07
-4.50387e-30
-2.27138e-24
-1.15663e-18
-4.28421e-13
-1.38551e-07
-4.16789e-30
-2.11206e-24
-1.07721e-18
-3.9848e-13
-1.27686e-07
-4.16374e-30
-2.10993e-24
-1.07605e-18
-3.97997e-13
-1.27498e-07
-4.14724e-30
-2.10176e-24
-1.07184e-18
-3.96305e-13
-1.26865e-07
-4.14724e-30
-2.10175e-24
-1.07183e-18
-3.96295e-13
-1.2686e-07
-4.14694e-30
-2.1016e-24
-1.07176e-18
-3.96265e-13
-1.2685e-07
-4.14731e-30
-2.10176e-24
-1.07184e-18
-3.96292e-13
-1.2686e-07
-4.14788e-30
-2.10201e-24
-1.07195e-18
-3.96327e-13
-1.26872e-07
-4.1481e-30
-2.10211e-24
-1.072e-18
-3.96343e-13
-1.26877e-07
-4.14832e-30
-2.1022e-24
-1.07204e-18
-3.96356e-13
-1.26881e-07
-4.14832e-30
-2.1022e-24
-1.07204e-18
-3.96356e-13
-1.26881e-07
-4.1481e-30
-2.10211e-24
-1.072e-18
-3.96343e-13
-1.26877e-07
-4.14788e-30
-2.10201e-24
-1.07195e-18
-3.96327e-13
-1.26872e-07
-4.14731e-30
-2.10176e-24
-1.07184e-18
-3.96292e-13
-1.2686e-07
-4.14694e-30
-2.1016e-24
-1.07176e-18
-3.96265e-13
-1.2685e-07
-4.14724e-30
-2.10175e-24
-1.07183e-18
-3.96295e-13
-1.2686e-07
-4.14724e-30
-2.10176e-24
-1.07184e-18
-3.96305e-13
-1.26865e-07
-4.16374e-30
-2.10993e-24
-1.07605e-18
-3.97997e-13
-1.27498e-07
-4.16789e-30
-2.11206e-24
-1.07721e-18
-3.9848e-13
-1.27686e-07
-4.50387e-30
-2.27138e-24
-1.15663e-18
-4.28421e-13
-1.38551e-07
-9.50549e-30
-4.20396e-24
-1.84309e-18
-5.68117e-13
-1.46522e-07
-8.74624e-30
-3.89101e-24
-1.71147e-18
-5.28211e-13
-1.35679e-07
-8.73683e-30
-3.88682e-24
-1.70956e-18
-5.27573e-13
-1.35493e-07
-8.70006e-30
-3.87099e-24
-1.70269e-18
-5.25349e-13
-1.34871e-07
-8.70007e-30
-3.87097e-24
-1.70267e-18
-5.25336e-13
-1.34867e-07
-8.6995e-30
-3.87071e-24
-1.70257e-18
-5.253e-13
-1.34858e-07
-8.70031e-30
-3.87103e-24
-1.7027e-18
-5.25336e-13
-1.34868e-07
-8.70157e-30
-3.87151e-24
-1.70289e-18
-5.25384e-13
-1.3488e-07
-8.70207e-30
-3.8717e-24
-1.70297e-18
-5.25405e-13
-1.34886e-07
-8.70255e-30
-3.87188e-24
-1.70303e-18
-5.25423e-13
-1.3489e-07
-8.70255e-30
-3.87188e-24
-1.70303e-18
-5.25423e-13
-1.3489e-07
-8.70207e-30
-3.8717e-24
-1.70297e-18
-5.25405e-13
-1.34886e-07
-8.70157e-30
-3.87151e-24
-1.70289e-18
-5.25384e-13
-1.3488e-07
-8.70031e-30
-3.87103e-24
-1.7027e-18
-5.25336e-13
-1.34868e-07
-8.6995e-30
-3.87071e-24
-1.70257e-18
-5.253e-13
-1.34858e-07
-8.70007e-30
-3.87097e-24
-1.70267e-18
-5.25336e-13
-1.34867e-07
-8.70006e-30
-3.87099e-24
-1.70269e-18
-5.25349e-13
-1.34871e-07
-8.73683e-30
-3.88682e-24
-1.70956e-18
-5.27573e-13
-1.35493e-07
-8.74624e-30
-3.89101e-24
-1.71147e-18
-5.28211e-13
-1.35679e-07
-9.50549e-30
-4.20396e-24
-1.84309e-18
-5.68117e-13
-1.46522e-07
-1.81963e-29
-7.13891e-24
-2.73884e-18
-7.20486e-13
-1.54463e-07
-1.66854e-29
-6.59111e-24
-2.54051e-18
-6.70444e-13
-1.43645e-07
-1.66668e-29
-6.58383e-24
-2.53767e-18
-6.69652e-13
-1.43461e-07
-1.65949e-29
-6.55661e-24
-2.52749e-18
-6.66905e-13
-1.42851e-07
-1.6595e-29
-6.55658e-24
-2.52747e-18
-6.66891e-13
-1.42848e-07
-1.6594e-29
-6.5562e-24
-2.52734e-18
-6.66851e-13
-1.4284e-07
-1.65957e-29
-6.55676e-24
-2.52754e-18
-6.66896e-13
-1.4285e-07
-1.65982e-29
-6.5576e-24
-2.52782e-18
-6.66958e-13
-1.42863e-07
-1.65992e-29
-6.55794e-24
-2.52794e-18
-6.66985e-13
-1.42869e-07
-1.66001e-29
-6.55824e-24
-2.52804e-18
-6.67007e-13
-1.42873e-07
-1.66001e-29
-6.55824e-24
-2.52804e-18
-6.67007e-13
-1.42873e-07
-1.65992e-29
-6.55794e-24
-2.52794e-18
-6.66985e-13
-1.42869e-07
-1.65982e-29
-6.5576e-24
-2.52782e-18
-6.66958e-13
-1.42863e-07
-1.65957e-29
-6.55676e-24
-2.52754e-18
-6.66896e-13
-1.4285e-07
-1.6594e-29
-6.5562e-24
-2.52734e-18
-6.66851e-13
-1.4284e-07
-1.6595e-29
-6.55658e-24
-2.52747e-18
-6.66891e-13
-1.42848e-07
-1.65949e-29
-6.55661e-24
-2.52749e-18
-6.66905e-13
-1.42851e-07
-1.66668e-29
-6.58383e-24
-2.53767e-18
-6.69652e-13
-1.43461e-07
-1.66854e-29
-6.59111e-24
-2.54051e-18
-6.70444e-13
-1.43645e-07
-1.81963e-29
-7.13891e-24
-2.73884e-18
-7.20486e-13
-1.54463e-07
-3.23415e-29
-1.13705e-23
-3.86919e-18
-8.85612e-13
-1.62378e-07
-2.95962e-29
-1.04853e-23
-3.5888e-18
-8.25264e-13
-1.51585e-07
-2.95627e-29
-1.04736e-23
-3.58484e-18
-8.2432e-13
-1.51404e-07
-2.94348e-29
-1.04305e-23
-3.57073e-18
-8.21061e-13
-1.50806e-07
-2.9435e-29
-1.04305e-23
-3.57071e-18
-8.21047e-13
-1.50804e-07
-2.94336e-29
-1.043e-23
-3.57057e-18
-8.21005e-13
-1.50798e-07
-2.94366e-29
-1.04309e-23
-3.57085e-18
-8.2106e-13
-1.50808e-07
-2.94412e-29
-1.04323e-23
-3.57126e-18
-8.21136e-13
-1.50821e-07
-2.9443e-29
-1.04328e-23
-3.57142e-18
-8.21169e-13
-1.50827e-07
-2.94446e-29
-1.04333e-23
-3.57157e-18
-8.21196e-13
-1.50831e-07
-2.94446e-29
-1.04333e-23
-3.57157e-18
-8.21196e-13
-1.50831e-07
-2.9443e-29
-1.04328e-23
-3.57142e-18
-8.21169e-13
-1.50827e-07
-2.94412e-29
-1.04323e-23
-3.57126e-18
-8.21136e-13
-1.50821e-07
-2.94366e-29
-1.04309e-23
-3.57085e-18
-8.2106e-13
-1.50808e-07
-2.94336e-29
-1.043e-23
-3.57057e-18
-8.21005e-13
-1.50798e-07
-2.9435e-29
-1.04305e-23
-3.57071e-18
-8.21047e-13
-1.50804e-07
-2.94348e-29
-1.04305e-23
-3.57073e-18
-8.21061e-13
-1.50806e-07
-2.95627e-29
-1.04736e-23
-3.58484e-18
-8.2432e-13
-1.51404e-07
-2.95962e-29
-1.04853e-23
-3.5888e-18
-8.25264e-13
-1.51585e-07
-3.23415e-29
-1.13705e-23
-3.86919e-18
-8.85612e-13
-1.62378e-07
-5.42317e-29
-1.72356e-23
-5.2603e-18
-1.06356e-12
-1.70264e-07
-4.95724e-29
-1.58869e-23
-4.88162e-18
-9.92743e-13
-1.59501e-07
-4.95163e-29
-1.58694e-23
-4.87635e-18
-9.9165e-13
-1.59322e-07
-4.93041e-29
-1.58051e-23
-4.85768e-18
-9.87891e-13
-1.58737e-07
-4.93048e-29
-1.58052e-23
-4.85768e-18
-9.87879e-13
-1.58735e-07
-4.9303e-29
-1.58045e-23
-4.85753e-18
-9.87836e-13
-1.5873e-07
-4.93081e-29
-1.5806e-23
-4.85792e-18
-9.87903e-13
-1.58741e-07
-4.93159e-29
-1.5808e-23
-4.85848e-18
-9.87993e-13
-1.58754e-07
-4.9319e-29
-1.58089e-23
-4.8587e-18
-9.88032e-13
-1.5876e-07
-4.93218e-29
-1.58097e-23
-4.8589e-18
-9.88064e-13
-1.58764e-07
-4.93218e-29
-1.58097e-23
-4.8589e-18
-9.88064e-13
-1.58764e-07
-4.9319e-29
-1.58089e-23
-4.8587e-18
-9.88032e-13
-1.5876e-07
-4.93159e-29
-1.5808e-23
-4.85848e-18
-9.87993e-13
-1.58754e-07
-4.93081e-29
-1.5806e-23
-4.85792e-18
-9.87903e-13
-1.58741e-07
-4.9303e-29
-1.58045e-23
-4.85753e-18
-9.87836e-13
-1.5873e-07
-4.93048e-29
-1.58052e-23
-4.85768e-18
-9.87879e-13
-1.58735e-07
-4.93041e-29
-1.58051e-23
-4.85768e-18
-9.87891e-13
-1.58737e-07
-4.95163e-29
-1.58694e-23
-4.87635e-18
-9.9165e-13
-1.59322e-07
-4.95724e-29
-1.58869e-23
-4.88162e-18
-9.92743e-13
-1.59501e-07
-5.42317e-29
-1.72356e-23
-5.2603e-18
-1.06356e-12
-1.70264e-07
-8.67768e-29
-2.51172e-23
-6.93915e-18
-1.2544e-12
-1.78122e-07
-7.92784e-29
-2.31528e-23
-6.44504e-18
-1.17294e-12
-1.6739e-07
-7.91896e-29
-2.31278e-23
-6.43827e-18
-1.1717e-12
-1.67214e-07
-7.88564e-29
-2.30362e-23
-6.41446e-18
-1.16746e-12
-1.66642e-07
-7.88578e-29
-2.30364e-23
-6.41449e-18
-1.16745e-12
-1.66641e-07
-7.8856e-29
-2.30358e-23
-6.41435e-18
-1.16741e-12
-1.66637e-07
-7.88643e-29
-2.30378e-23
-6.41486e-18
-1.16748e-12
-1.66648e-07
-7.88769e-29
-2.30409e-23
-6.4156e-18
-1.16759e-12
-1.66662e-07
-7.88819e-29
-2.30422e-23
-6.41591e-18
-1.16763e-12
-1.66668e-07
-7.88865e-29
-2.30433e-23
-6.41617e-18
-1.16767e-12
-1.66672e-07
-7.88865e-29
-2.30433e-23
-6.41617e-18
-1.16767e-12
-1.66672e-07
-7.88819e-29
-2.30422e-23
-6.41591e-18
-1.16763e-12
-1.66668e-07
-7.88769e-29
-2.30409e-23
-6.4156e-18
-1.16759e-12
-1.66662e-07
-7.88643e-29
-2.30378e-23
-6.41486e-18
-1.16748e-12
-1.66648e-07
-7.8856e-29
-2.30358e-23
-6.41435e-18
-1.16741e-12
-1.66637e-07
-7.88578e-29
-2.30364e-23
-6.41449e-18
-1.16745e-12
-1.66641e-07
-7.88564e-29
-2.30362e-23
-6.41446e-18
-1.16746e-12
-1.66642e-07
-7.91896e-29
-2.31278e-23
-6.43828e-18
-1.1717e-12
-1.67214e-07
-7.92784e-29
-2.31528e-23
-6.44504e-18
-1.17294e-12
-1.6739e-07
-8.67768e-29
-2.51172e-23
-6.93915e-18
-1.2544e-12
-1.78122e-07
-1.33612e-28
-3.54474e-23
-8.93359e-18
-1.45814e-12
-1.85949e-07
-1.22047e-28
-3.26865e-23
-8.30599e-18
-1.36589e-12
-1.7525e-07
-1.21913e-28
-3.2652e-23
-8.29754e-18
-1.36451e-12
-1.75077e-07
-1.21412e-28
-3.25264e-23
-8.26802e-18
-1.3598e-12
-1.74518e-07
-1.21415e-28
-3.25268e-23
-8.26808e-18
-1.35979e-12
-1.74518e-07
-1.21414e-28
-3.25262e-23
-8.26799e-18
-1.35975e-12
-1.74516e-07
-1.21427e-28
-3.25292e-23
-8.26865e-18
-1.35984e-12
-1.74527e-07
-1.21446e-28
-3.25336e-23
-8.26961e-18
-1.35997e-12
-1.74541e-07
-1.21454e-28
-3.25353e-23
-8.26999e-18
-1.36002e-12
-1.74547e-07
-1.21461e-28
-3.25369e-23
-8.27033e-18
-1.36006e-12
-1.74552e-07
-1.21461e-28
-3.25369e-23
-8.27033e-18
-1.36006e-12
-1.74552e-07
-1.21454e-28
-3.25353e-23
-8.26999e-18
-1.36002e-12
-1.74547e-07
-1.21446e-28
-3.25336e-23
-8.26961e-18
-1.35997e-12
-1.74541e-07
-1.21427e-28
-3.25292e-23
-8.26865e-18
-1.35984e-12
-1.74527e-07
-1.21414e-28
-3.25262e-23
-8.26799e-18
-1.35975e-12
-1.74516e-07
-1.21415e-28
-3.25268e-23
-8.26808e-18
-1.35979e-12
-1.74518e-07
-1.21412e-28
-3.25264e-23
-8.26802e-18
-1.3598e-12
-1.74518e-07
-1.21913e-28
-3.2652e-23
-8.29755e-18
-1.36451e-12
-1.75077e-07
-1.22047e-28
-3.26865e-23
-8.30599e-18
-1.36589e-12
-1.7525e-07
-1.33612e-28
-3.54474e-23
-8.93359e-18
-1.45814e-12
-1.85949e-07
-1.99218e-28
-4.87114e-23
-1.12724e-17
-1.67482e-12
-1.93733e-07
-1.81993e-28
-4.49415e-23
-1.04923e-17
-1.57163e-12
-1.83073e-07
-1.81796e-28
-4.48952e-23
-1.0482e-17
-1.5701e-12
-1.82903e-07
-1.81071e-28
-4.47281e-23
-1.04462e-17
-1.56494e-12
-1.82358e-07
-1.81076e-28
-4.47289e-23
-1.04463e-17
-1.56494e-12
-1.82358e-07
-1.81076e-28
-4.47285e-23
-1.04463e-17
-1.56491e-12
-1.82358e-07
-1.81096e-28
-4.47326e-23
-1.04471e-17
-1.56501e-12
-1.82369e-07
-1.81125e-28
-4.47387e-23
-1.04483e-17
-1.56515e-12
-1.82383e-07
-1.81137e-28
-4.47412e-23
-1.04488e-17
-1.56521e-12
-1.82389e-07
-1.81148e-28
-4.47433e-23
-1.04492e-17
-1.56526e-12
-1.82394e-07
-1.81148e-28
-4.47433e-23
-1.04492e-17
-1.56526e-12
-1.82394e-07
-1.81137e-28
-4.47412e-23
-1.04488e-17
-1.56521e-12
-1.82389e-07
-1.81125e-28
-4.47387e-23
-1.04483e-17
-1.56515e-12
-1.82383e-07
-1.81096e-28
-4.47326e-23
-1.04471e-17
-1.56501e-12
-1.82369e-07
-1.81076e-28
-4.47285e-23
-1.04463e-17
-1.56491e-12
-1.82358e-07
-1.81076e-28
-4.47289e-23
-1.04463e-17
-1.56494e-12
-1.82358e-07
-1.81071e-28
-4.47281e-23
-1.04462e-17
-1.56494e-12
-1.82358e-07
-1.81796e-28
-4.48952e-23
-1.0482e-17
-1.5701e-12
-1.82903e-07
-1.81993e-28
-4.49415e-23
-1.04923e-17
-1.57163e-12
-1.83073e-07
-1.99218e-28
-4.87114e-23
-1.12724e-17
-1.67482e-12
-1.93733e-07
-2.89055e-28
-6.54512e-23
-1.39853e-17
-1.90441e-12
-2.01442e-07
-2.64133e-28
-6.04252e-23
-1.30325e-17
-1.79012e-12
-1.90827e-07
-2.63855e-28
-6.03647e-23
-1.30202e-17
-1.78846e-12
-1.9066e-07
-2.62836e-28
-6.0148e-23
-1.29777e-17
-1.78286e-12
-1.90129e-07
-2.62845e-28
-6.01493e-23
-1.29779e-17
-1.78287e-12
-1.9013e-07
-2.62848e-28
-6.01494e-23
-1.2978e-17
-1.78285e-12
-1.90131e-07
-2.62877e-28
-6.0155e-23
-1.2979e-17
-1.78296e-12
-1.90142e-07
-2.6292e-28
-6.01633e-23
-1.29805e-17
-1.78312e-12
-1.90157e-07
-2.62937e-28
-6.01665e-23
-1.29811e-17
-1.78319e-12
-1.90163e-07
-2.62953e-28
-6.01694e-23
-1.29816e-17
-1.78324e-12
-1.90168e-07
-2.62953e-28
-6.01694e-23
-1.29816e-17
-1.78324e-12
-1.90168e-07
-2.62937e-28
-6.01665e-23
-1.29811e-17
-1.78319e-12
-1.90163e-07
-2.6292e-28
-6.01633e-23
-1.29805e-17
-1.78312e-12
-1.90157e-07
-2.62877e-28
-6.0155e-23
-1.2979e-17
-1.78296e-12
-1.90142e-07
-2.62848e-28
-6.01494e-23
-1.2978e-17
-1.78285e-12
-1.90131e-07
-2.62845e-28
-6.01493e-23
-1.29779e-17
-1.78287e-12
-1.9013e-07
-2.62836e-28
-6.0148e-23
-1.29777e-17
-1.78286e-12
-1.90129e-07
-2.63855e-28
-6.03647e-23
-1.30202e-17
-1.78846e-12
-1.9066e-07
-2.64133e-28
-6.04252e-23
-1.30325e-17
-1.79012e-12
-1.90827e-07
-2.89055e-28
-6.54512e-23
-1.39853e-17
-1.90441e-12
-2.01442e-07
-4.2368e-12
-8.79525e-14
-3.07235e-16
-1.9679e-19
1.9965e-21
2.02835e-21
2.03146e-21
2.0316e-21
2.03166e-21
2.0317e-21
2.0318e-21
2.0319e-21
2.03283e-21
2.03447e-21
2.0511e-21
2.07045e-21
2.30103e-21
2.45911e-21
6.49685e-21
7.66024e-21
-5.23284e-12
-1.08586e-13
-3.85387e-16
-2.51199e-19
1.99026e-21
2.02831e-21
2.03145e-21
2.03159e-21
2.03163e-21
2.03164e-21
2.03164e-21
2.03171e-21
2.03263e-21
2.03429e-21
2.05107e-21
2.07057e-21
2.30288e-21
2.46173e-21
6.52848e-21
7.6978e-21
-5.25802e-12
-1.09049e-13
-3.86945e-16
-2.52211e-19
1.99015e-21
2.02831e-21
2.03145e-21
2.03159e-21
2.03163e-21
2.03164e-21
2.03164e-21
2.03172e-21
2.03265e-21
2.03431e-21
2.05109e-21
2.07059e-21
2.30293e-21
2.46179e-21
6.52878e-21
7.69811e-21
-5.33211e-12
-1.10426e-13
-3.91464e-16
-2.55077e-19
1.98985e-21
2.02832e-21
2.03145e-21
2.0316e-21
2.03164e-21
2.03164e-21
2.03166e-21
2.03177e-21
2.0327e-21
2.03436e-21
2.05115e-21
2.07066e-21
2.30305e-21
2.46193e-21
6.52942e-21
7.69875e-21
-5.33353e-12
-1.10447e-13
-3.91522e-16
-2.55108e-19
1.98984e-21
2.02832e-21
2.03145e-21
2.0316e-21
2.03164e-21
2.03164e-21
2.03166e-21
2.03177e-21
2.0327e-21
2.03436e-21
2.05116e-21
2.07066e-21
2.30305e-21
2.46193e-21
6.52943e-21
7.69876e-21
-5.33548e-12
-1.10475e-13
-3.91594e-16
-2.55145e-19
1.98984e-21
2.02832e-21
2.03145e-21
2.0316e-21
2.03164e-21
2.03164e-21
2.03166e-21
2.03177e-21
2.0327e-21
2.03437e-21
2.05116e-21
2.07066e-21
2.30305e-21
2.46194e-21
6.52944e-21
7.69877e-21
-5.33487e-12
-1.10462e-13
-3.91545e-16
-2.55112e-19
1.98984e-21
2.02832e-21
2.03145e-21
2.0316e-21
2.03164e-21
2.03164e-21
2.03166e-21
2.03177e-21
2.0327e-21
2.03437e-21
2.05116e-21
2.07066e-21
2.30305e-21
2.46194e-21
6.52945e-21
7.69877e-21
-5.33408e-12
-1.10446e-13
-3.91487e-16
-2.55074e-19
1.98985e-21
2.02832e-21
2.03145e-21
2.0316e-21
2.03164e-21
2.03164e-21
2.03166e-21
2.03177e-21
2.0327e-21
2.03437e-21
2.05116e-21
2.07066e-21
2.30305e-21
2.46194e-21
6.52945e-21
7.69877e-21
-5.33368e-12
-1.10437e-13
-3.91458e-16
-2.55055e-19
1.98985e-21
2.02832e-21
2.03145e-21
2.0316e-21
2.03164e-21
2.03164e-21
2.03166e-21
2.03177e-21
2.0327e-21
2.03437e-21
2.05116e-21
2.07066e-21
2.30305e-21
2.46194e-21
6.52945e-21
7.69877e-21
-5.33339e-12
-1.10432e-13
-3.91439e-16
-2.55042e-19
1.98985e-21
2.02832e-21
2.03145e-21
2.0316e-21
2.03164e-21
2.03164e-21
2.03166e-21
2.03177e-21
2.0327e-21
2.03437e-21
2.05116e-21
2.07066e-21
2.30305e-21
2.46194e-21
6.52944e-21
7.69877e-21
-5.33339e-12
-1.10432e-13
-3.91439e-16
-2.55042e-19
1.98985e-21
2.02832e-21
2.03145e-21
2.0316e-21
2.03164e-21
2.03164e-21
2.03166e-21
2.03177e-21
2.0327e-21
2.03437e-21
2.05116e-21
2.07066e-21
2.30305e-21
2.46194e-21
6.52944e-21
7.69877e-21
-5.33368e-12
-1.10437e-13
-3.91458e-16
-2.55055e-19
1.98985e-21
2.02832e-21
2.03145e-21
2.0316e-21
2.03164e-21
2.03164e-21
2.03166e-21
2.03177e-21
2.0327e-21
2.03437e-21
2.05116e-21
2.07066e-21
2.30305e-21
2.46194e-21
6.52945e-21
7.69877e-21
-5.33408e-12
-1.10446e-13
-3.91487e-16
-2.55074e-19
1.98985e-21
2.02832e-21
2.03145e-21
2.0316e-21
2.03164e-21
2.03164e-21
2.03166e-21
2.03177e-21
2.0327e-21
2.03437e-21
2.05116e-21
2.07066e-21
2.30305e-21
2.46194e-21
6.52945e-21
7.69877e-21
-5.33487e-12
-1.10462e-13
-3.91545e-16
-2.55112e-19
1.98984e-21
2.02832e-21
2.03145e-21
2.0316e-21
2.03164e-21
2.03164e-21
2.03166e-21
2.03177e-21
2.0327e-21
2.03437e-21
2.05116e-21
2.07066e-21
2.30305e-21
2.46194e-21
6.52945e-21
7.69877e-21
-5.33548e-12
-1.10475e-13
-3.91594e-16
-2.55145e-19
1.98984e-21
2.02832e-21
2.03145e-21
2.0316e-21
2.03164e-21
2.03164e-21