/*--------------------------------*- C++ -*----------------------------------*\
  =========                 |
  \\      /  F ield         | OpenFOAM: The Open Source CFD Toolbox
   \\    /   O peration     | Website:  https://openfoam.org
    \\  /    A nd           | Version:  8
     \\/     M anipulation  |
\*---------------------------------------------------------------------------*/
FoamFile
{
    version     2.0;
    format      ascii;
    class       volScalarField;
    location    "1.9";
    object      H2;
}
// * * * * * * * * * * * * * * * * * * * * * * * * * * * * * * * * * * * * * //

dimensions      [0 1 -1 0 0 0 0];

internalField   nonuniform List<scalar> 
180000
(
-3.40282e-29
-1.66534e-24
-7.20727e-20
-2.65562e-15
-7.99248e-11
-3.76598e-29
-1.8275e-24
-7.82524e-20
-2.84177e-15
-8.36141e-11
-3.77667e-29
-1.83226e-24
-7.84341e-20
-2.84731e-15
-8.37326e-11
-3.81301e-29
-1.84861e-24
-7.90626e-20
-2.86665e-15
-8.41453e-11
-3.81444e-29
-1.84925e-24
-7.90874e-20
-2.86743e-15
-8.4163e-11
-3.81781e-29
-1.85082e-24
-7.91499e-20
-2.86946e-15
-8.42116e-11
-3.81801e-29
-1.85092e-24
-7.91541e-20
-2.86961e-15
-8.42161e-11
-3.81851e-29
-1.85118e-24
-7.91653e-20
-2.87003e-15
-8.42278e-11
-3.81854e-29
-1.85119e-24
-7.91662e-20
-2.87007e-15
-8.42293e-11
-3.81861e-29
-1.85124e-24
-7.91683e-20
-2.87015e-15
-8.4232e-11
-3.81861e-29
-1.85124e-24
-7.91683e-20
-2.87015e-15
-8.4232e-11
-3.81854e-29
-1.8512e-24
-7.91662e-20
-2.87007e-15
-8.42293e-11
-3.81851e-29
-1.85118e-24
-7.91653e-20
-2.87003e-15
-8.42278e-11
-3.81801e-29
-1.85092e-24
-7.91541e-20
-2.86961e-15
-8.42161e-11
-3.81781e-29
-1.85082e-24
-7.91499e-20
-2.86946e-15
-8.42116e-11
-3.81444e-29
-1.84925e-24
-7.90874e-20
-2.86743e-15
-8.4163e-11
-3.81301e-29
-1.84861e-24
-7.90626e-20
-2.86665e-15
-8.41453e-11
-3.77667e-29
-1.83226e-24
-7.84341e-20
-2.84731e-15
-8.37326e-11
-3.76598e-29
-1.8275e-24
-7.82524e-20
-2.84177e-15
-8.36141e-11
-3.40282e-29
-1.66534e-24
-7.20727e-20
-2.65562e-15
-7.99248e-11
-3.40266e-29
-1.66525e-24
-7.20704e-20
-2.6627e-15
-9.17938e-11
-3.7658e-29
-1.8274e-24
-7.82485e-20
-2.84696e-15
-9.23598e-11
-3.77649e-29
-1.83217e-24
-7.84301e-20
-2.85247e-15
-9.24263e-11
-3.81283e-29
-1.84851e-24
-7.90585e-20
-2.87169e-15
-9.26384e-11
-3.81426e-29
-1.84915e-24
-7.90833e-20
-2.87246e-15
-9.2656e-11
-3.81763e-29
-1.85072e-24
-7.91458e-20
-2.87449e-15
-9.27033e-11
-3.81783e-29
-1.85082e-24
-7.91501e-20
-2.87464e-15
-9.27099e-11
-3.81833e-29
-1.85108e-24
-7.91612e-20
-2.87505e-15
-9.27248e-11
-3.81836e-29
-1.8511e-24
-7.91622e-20
-2.87509e-15
-9.27272e-11
-3.81843e-29
-1.85114e-24
-7.91643e-20
-2.87518e-15
-9.27307e-11
-3.81843e-29
-1.85114e-24
-7.91643e-20
-2.87518e-15
-9.27307e-11
-3.81836e-29
-1.8511e-24
-7.91622e-20
-2.87509e-15
-9.27272e-11
-3.81833e-29
-1.85108e-24
-7.91612e-20
-2.87505e-15
-9.27248e-11
-3.81783e-29
-1.85082e-24
-7.91501e-20
-2.87464e-15
-9.27099e-11
-3.81763e-29
-1.85072e-24
-7.91458e-20
-2.87449e-15
-9.27033e-11
-3.81426e-29
-1.84915e-24
-7.90833e-20
-2.87246e-15
-9.2656e-11
-3.81283e-29
-1.84851e-24
-7.90585e-20
-2.87169e-15
-9.26384e-11
-3.77649e-29
-1.83217e-24
-7.84301e-20
-2.85247e-15
-9.24263e-11
-3.7658e-29
-1.8274e-24
-7.82485e-20
-2.84696e-15
-9.23598e-11
-3.40266e-29
-1.66525e-24
-7.20705e-20
-2.6627e-15
-9.17938e-11
-3.40252e-29
-1.66509e-24
-7.20041e-20
-2.56556e-15
8.95844e-11
-3.76564e-29
-1.82721e-24
-7.81586e-20
-2.7152e-15
1.46556e-10
-3.77633e-29
-1.83197e-24
-7.83399e-20
-2.72021e-15
1.47367e-10
-3.81268e-29
-1.84832e-24
-7.89673e-20
-2.73771e-15
1.50311e-10
-3.8141e-29
-1.84896e-24
-7.89921e-20
-2.73854e-15
1.50232e-10
-3.81748e-29
-1.85053e-24
-7.90548e-20
-2.74083e-15
1.49883e-10
-3.81768e-29
-1.85063e-24
-7.90592e-20
-2.74104e-15
1.49809e-10
-3.81817e-29
-1.85088e-24
-7.90705e-20
-2.7416e-15
1.49609e-10
-3.8182e-29
-1.8509e-24
-7.90714e-20
-2.74166e-15
1.49579e-10
-3.81828e-29
-1.85095e-24
-7.90735e-20
-2.74178e-15
1.49527e-10
-3.81828e-29
-1.85095e-24
-7.90735e-20
-2.74178e-15
1.49527e-10
-3.8182e-29
-1.8509e-24
-7.90714e-20
-2.74166e-15
1.49579e-10
-3.81817e-29
-1.85088e-24
-7.90705e-20
-2.7416e-15
1.49609e-10
-3.81768e-29
-1.85063e-24
-7.90592e-20
-2.74104e-15
1.49809e-10
-3.81748e-29
-1.85053e-24
-7.90548e-20
-2.74083e-15
1.49883e-10
-3.8141e-29
-1.84896e-24
-7.89921e-20
-2.73854e-15
1.50232e-10
-3.81268e-29
-1.84832e-24
-7.89673e-20
-2.73771e-15
1.50312e-10
-3.77633e-29
-1.83197e-24
-7.83399e-20
-2.72021e-15
1.47367e-10
-3.76564e-29
-1.82721e-24
-7.81586e-20
-2.7152e-15
1.46556e-10
-3.40252e-29
-1.66509e-24
-7.20041e-20
-2.56556e-15
8.95844e-11
-3.40232e-29
-1.66412e-24
-7.08354e-20
-8.51533e-16
2.85311e-09
-3.76541e-29
-1.82612e-24
-7.68289e-20
-7.70034e-16
3.2682e-09
-3.77611e-29
-1.83088e-24
-7.70086e-20
-7.72163e-16
3.27397e-09
-3.81245e-29
-1.84722e-24
-7.76327e-20
-7.81179e-16
3.29452e-09
-3.81388e-29
-1.84787e-24
-7.76584e-20
-7.82701e-16
3.29383e-09
-3.81725e-29
-1.84944e-24
-7.77247e-20
-7.88316e-16
3.29052e-09
-3.81745e-29
-1.84954e-24
-7.77295e-20
-7.89002e-16
3.28993e-09
-3.81795e-29
-1.84979e-24
-7.77424e-20
-7.91149e-16
3.28813e-09
-3.81798e-29
-1.84981e-24
-7.77435e-20
-7.91396e-16
3.28789e-09
-3.81805e-29
-1.84986e-24
-7.77461e-20
-7.91936e-16
3.28742e-09
-3.81805e-29
-1.84986e-24
-7.77461e-20
-7.91936e-16
3.28742e-09
-3.81798e-29
-1.84981e-24
-7.77435e-20
-7.91396e-16
3.28789e-09
-3.81795e-29
-1.84979e-24
-7.77424e-20
-7.91149e-16
3.28813e-09
-3.81745e-29
-1.84954e-24
-7.77295e-20
-7.89002e-16
3.28993e-09
-3.81725e-29
-1.84944e-24
-7.77247e-20
-7.88316e-16
3.29052e-09
-3.81388e-29
-1.84787e-24
-7.76584e-20
-7.82701e-16
3.29383e-09
-3.81245e-29
-1.84722e-24
-7.76327e-20
-7.81179e-16
3.29452e-09
-3.77611e-29
-1.83088e-24
-7.70086e-20
-7.72163e-16
3.27397e-09
-3.76541e-29
-1.82612e-24
-7.68289e-20
-7.70034e-16
3.2682e-09
-3.40232e-29
-1.66412e-24
-7.08354e-20
-8.51534e-16
2.85311e-09
-3.40174e-29
-1.6583e-24
-6.31687e-20
9.21652e-15
1.70567e-08
-3.76478e-29
-1.81982e-24
-6.85454e-20
1.01087e-14
1.85751e-08
-3.77549e-29
-1.82458e-24
-6.87208e-20
1.0115e-14
1.85947e-08
-3.81183e-29
-1.84093e-24
-6.93474e-20
1.01254e-14
1.86636e-08
-3.81325e-29
-1.84158e-24
-6.93776e-20
1.01203e-14
1.86604e-08
-3.81663e-29
-1.84317e-24
-6.94654e-20
1.00976e-14
1.86449e-08
-3.81683e-29
-1.84328e-24
-6.94728e-20
1.00947e-14
1.86423e-08
-3.81733e-29
-1.84354e-24
-6.9495e-20
1.00847e-14
1.86343e-08
-3.81736e-29
-1.84356e-24
-6.94971e-20
1.00836e-14
1.86333e-08
-3.81743e-29
-1.84361e-24
-6.9502e-20
1.0081e-14
1.86312e-08
-3.81743e-29
-1.84361e-24
-6.9502e-20
1.0081e-14
1.86312e-08
-3.81736e-29
-1.84356e-24
-6.94971e-20
1.00836e-14
1.86333e-08
-3.81733e-29
-1.84354e-24
-6.9495e-20
1.00847e-14
1.86343e-08
-3.81683e-29
-1.84328e-24
-6.94728e-20
1.00947e-14
1.86423e-08
-3.81663e-29
-1.84317e-24
-6.94654e-20
1.00976e-14
1.86449e-08
-3.81325e-29
-1.84158e-24
-6.93776e-20
1.01203e-14
1.86604e-08
-3.81183e-29
-1.84093e-24
-6.93474e-20
1.01254e-14
1.86636e-08
-3.77549e-29
-1.82458e-24
-6.87208e-20
1.0115e-14
1.85947e-08
-3.76478e-29
-1.81982e-24
-6.85454e-20
1.01087e-14
1.85752e-08
-3.40174e-29
-1.6583e-24
-6.31687e-20
9.21652e-15
1.70567e-08
-3.39953e-29
-1.63342e-24
-3.28858e-20
4.41535e-14
5.91987e-08
-3.76246e-29
-1.79367e-24
-3.67181e-20
4.68422e-14
6.2739e-08
-3.77317e-29
-1.79844e-24
-3.68898e-20
4.68623e-14
6.27805e-08
-3.80952e-29
-1.81488e-24
-3.75732e-20
4.6884e-14
6.29217e-08
-3.81094e-29
-1.81555e-24
-3.76204e-20
4.68674e-14
6.29118e-08
-3.81433e-29
-1.81723e-24
-3.77885e-20
4.679e-14
6.28649e-08
-3.81453e-29
-1.81735e-24
-3.7805e-20
4.67804e-14
6.28579e-08
-3.81504e-29
-1.81765e-24
-3.78611e-20
4.67462e-14
6.28344e-08
-3.81506e-29
-1.81767e-24
-3.78666e-20
4.67426e-14
6.28317e-08
-3.81514e-29
-1.81773e-24
-3.78805e-20
4.67336e-14
6.28255e-08
-3.81514e-29
-1.81773e-24
-3.78805e-20
4.67336e-14
6.28255e-08
-3.81506e-29
-1.81767e-24
-3.78666e-20
4.67426e-14
6.28317e-08
-3.81504e-29
-1.81765e-24
-3.78611e-20
4.67462e-14
6.28344e-08
-3.81453e-29
-1.81735e-24
-3.7805e-20
4.67804e-14
6.28579e-08
-3.81433e-29
-1.81723e-24
-3.77885e-20
4.679e-14
6.28649e-08
-3.81094e-29
-1.81555e-24
-3.76204e-20
4.68674e-14
6.29118e-08
-3.80952e-29
-1.81488e-24
-3.75732e-20
4.6884e-14
6.29217e-08
-3.77317e-29
-1.79844e-24
-3.68898e-20
4.68623e-14
6.27805e-08
-3.76246e-29
-1.79367e-24
-3.67181e-20
4.68422e-14
6.2739e-08
-3.39953e-29
-1.63342e-24
-3.28858e-20
4.41535e-14
5.91987e-08
-3.3921e-29
-1.55402e-24
5.37424e-20
1.30991e-13
1.46903e-07
-3.7548e-29
-1.7118e-24
5.26722e-20
1.36459e-13
1.52835e-07
-3.76552e-29
-1.7166e-24
5.24878e-20
1.36489e-13
1.52896e-07
-3.80192e-29
-1.73343e-24
5.15532e-20
1.36443e-13
1.53079e-07
-3.80336e-29
-1.73415e-24
5.1459e-20
1.36399e-13
1.53056e-07
-3.80678e-29
-1.73612e-24
5.10693e-20
1.36192e-13
1.52949e-07
-3.80698e-29
-1.73626e-24
5.10283e-20
1.36167e-13
1.52934e-07
-3.8075e-29
-1.73667e-24
5.08803e-20
1.36077e-13
1.52882e-07
-3.80753e-29
-1.73671e-24
5.08656e-20
1.36068e-13
1.52876e-07
-3.80761e-29
-1.73679e-24
5.08276e-20
1.36044e-13
1.52863e-07
-3.80761e-29
-1.73679e-24
5.08276e-20
1.36044e-13
1.52863e-07
-3.80753e-29
-1.73671e-24
5.08656e-20
1.36068e-13
1.52876e-07
-3.8075e-29
-1.73667e-24
5.08803e-20
1.36077e-13
1.52882e-07
-3.80698e-29
-1.73626e-24
5.10283e-20
1.36167e-13
1.52934e-07
-3.80678e-29
-1.73612e-24
5.10693e-20
1.36192e-13
1.52949e-07
-3.80336e-29
-1.73415e-24
5.1459e-20
1.36399e-13
1.53056e-07
-3.80192e-29
-1.73343e-24
5.15532e-20
1.36443e-13
1.53079e-07
-3.76552e-29
-1.7166e-24
5.24878e-20
1.36489e-13
1.52896e-07
-3.7548e-29
-1.7118e-24
5.26722e-20
1.36459e-13
1.52835e-07
-3.3921e-29
-1.55402e-24
5.37424e-20
1.30991e-13
1.46903e-07
-3.37119e-29
-1.34967e-24
2.52106e-19
3.02854e-13
2.90205e-07
-3.73357e-29
-1.50391e-24
2.54653e-19
3.11425e-13
2.97884e-07
-3.74432e-29
-1.50883e-24
2.54402e-19
3.1144e-13
2.97943e-07
-3.78088e-29
-1.52679e-24
2.52742e-19
3.11116e-13
2.98054e-07
-3.78233e-29
-1.52766e-24
2.52542e-19
3.11018e-13
2.98009e-07
-3.78585e-29
-1.53033e-24
2.51655e-19
3.10558e-13
2.97801e-07
-3.78606e-29
-1.53054e-24
2.5156e-19
3.10505e-13
2.97775e-07
-3.78661e-29
-1.53124e-24
2.51209e-19
3.1031e-13
2.9768e-07
-3.78665e-29
-1.5313e-24
2.51174e-19
3.1029e-13
2.9767e-07
-3.78674e-29
-1.53146e-24
2.51083e-19
3.10238e-13
2.97644e-07
-3.78674e-29
-1.53146e-24
2.51083e-19
3.10238e-13
2.97644e-07
-3.78665e-29
-1.5313e-24
2.51174e-19
3.1029e-13
2.9767e-07
-3.78661e-29
-1.53124e-24
2.51209e-19
3.1031e-13
2.9768e-07
-3.78606e-29
-1.53054e-24
2.5156e-19
3.10505e-13
2.97775e-07
-3.78585e-29
-1.53033e-24
2.51655e-19
3.10558e-13
2.97801e-07
-3.78233e-29
-1.52766e-24
2.52542e-19
3.11018e-13
2.98009e-07
-3.78088e-29
-1.52679e-24
2.52742e-19
3.11116e-13
2.98054e-07
-3.74432e-29
-1.50883e-24
2.54402e-19
3.1144e-13
2.97943e-07
-3.73357e-29
-1.50391e-24
2.54653e-19
3.11425e-13
2.97884e-07
-3.37119e-29
-1.34967e-24
2.52106e-19
3.02854e-13
2.90205e-07
-3.32063e-29
-9.01152e-25
6.39227e-19
5.92695e-13
4.88527e-07
-3.6828e-29
-1.05226e-24
6.44902e-19
6.03536e-13
4.96483e-07
-3.6936e-29
-1.0575e-24
6.44468e-19
6.03483e-13
4.96508e-07
-3.73058e-29
-1.07822e-24
6.41159e-19
6.02495e-13
4.96354e-07
-3.73208e-29
-1.07941e-24
6.40756e-19
6.02306e-13
4.96277e-07
-3.73582e-29
-1.0836e-24
6.38904e-19
6.01417e-13
4.95919e-07
-3.73605e-29
-1.08397e-24
6.38709e-19
6.01318e-13
4.95876e-07
-3.7367e-29
-1.08528e-24
6.37968e-19
6.00947e-13
4.9572e-07
-3.73674e-29
-1.0854e-24
6.37896e-19
6.0091e-13
4.95704e-07
-3.73685e-29
-1.08572e-24
6.37703e-19
6.00812e-13
4.95663e-07
-3.73685e-29
-1.08572e-24
6.37703e-19
6.00812e-13
4.95663e-07
-3.73674e-29
-1.0854e-24
6.37896e-19
6.0091e-13
4.95704e-07
-3.7367e-29
-1.08528e-24
6.37968e-19
6.00947e-13
4.9572e-07
-3.73605e-29
-1.08397e-24
6.38709e-19
6.01318e-13
4.95876e-07
-3.73582e-29
-1.0836e-24
6.38904e-19
6.01417e-13
4.95919e-07
-3.73208e-29
-1.07941e-24
6.40756e-19
6.02306e-13
4.96277e-07
-3.73058e-29
-1.07822e-24
6.41159e-19
6.02495e-13
4.96354e-07
-3.6936e-29
-1.0575e-24
6.44468e-19
6.03483e-13
4.96508e-07
-3.6828e-29
-1.05226e-24
6.44902e-19
6.03536e-13
4.96483e-07
-3.32063e-29
-9.01152e-25
6.39227e-19
5.92695e-13
4.88527e-07
-3.21228e-29
-2.86725e-26
1.31071e-18
1.02875e-12
7.33752e-07
-3.5749e-29
-1.80659e-25
1.31664e-18
1.03975e-12
7.40259e-07
-3.58583e-29
-1.86607e-25
1.31581e-18
1.03954e-12
7.40213e-07
-3.62376e-29
-2.13073e-25
1.30932e-18
1.03731e-12
7.39566e-07
-3.62536e-29
-2.14886e-25
1.30856e-18
1.03698e-12
7.39444e-07
-3.62957e-29
-2.22029e-25
1.30503e-18
1.03543e-12
7.38876e-07
-3.62985e-29
-2.227e-25
1.30467e-18
1.03527e-12
7.38813e-07
-3.63068e-29
-2.25185e-25
1.30326e-18
1.03463e-12
7.38574e-07
-3.63074e-29
-2.25414e-25
1.30312e-18
1.03457e-12
7.38551e-07
-3.6309e-29
-2.26039e-25
1.30275e-18
1.0344e-12
7.38488e-07
-3.6309e-29
-2.26039e-25
1.30275e-18
1.0344e-12
7.38488e-07
-3.63074e-29
-2.25414e-25
1.30312e-18
1.03457e-12
7.38551e-07
-3.63068e-29
-2.25185e-25
1.30326e-18
1.03463e-12
7.38574e-07
-3.62985e-29
-2.227e-25
1.30467e-18
1.03527e-12
7.38813e-07
-3.62957e-29
-2.22029e-25
1.30503e-18
1.03543e-12
7.38876e-07
-3.62536e-29
-2.14886e-25
1.30856e-18
1.03698e-12
7.39444e-07
-3.62376e-29
-2.13072e-25
1.30932e-18
1.03731e-12
7.39566e-07
-3.58583e-29
-1.86607e-25
1.31581e-18
1.03954e-12
7.40213e-07
-3.5749e-29
-1.80659e-25
1.31664e-18
1.03975e-12
7.40259e-07
-3.21228e-29
-2.86726e-26
1.31071e-18
1.02875e-12
7.33752e-07
-3.00609e-29
1.44624e-24
2.26473e-18
1.46258e-12
7.30873e-07
-3.37076e-29
1.2858e-24
2.26806e-18
1.47377e-12
7.37448e-07
-3.38195e-29
1.27857e-24
2.26665e-18
1.47342e-12
7.37406e-07
-3.42174e-29
1.242e-24
2.25546e-18
1.46997e-12
7.36782e-07
-3.42353e-29
1.23915e-24
2.25421e-18
1.46951e-12
7.36662e-07
-3.42863e-29
1.22703e-24
2.24831e-18
1.46731e-12
7.36104e-07
-3.429e-29
1.22586e-24
2.2477e-18
1.46707e-12
7.36042e-07
-3.43019e-29
1.22141e-24
2.24535e-18
1.46617e-12
7.35808e-07
-3.43028e-29
1.22099e-24
2.24512e-18
1.46609e-12
7.35784e-07
-3.43053e-29
1.21985e-24
2.24451e-18
1.46585e-12
7.35722e-07
-3.43053e-29
1.21985e-24
2.24451e-18
1.46585e-12
7.35722e-07
-3.43028e-29
1.22099e-24
2.24512e-18
1.46609e-12
7.35784e-07
-3.43019e-29
1.22141e-24
2.24535e-18
1.46617e-12
7.35808e-07
-3.429e-29
1.22586e-24
2.2477e-18
1.46707e-12
7.36042e-07
-3.42863e-29
1.22703e-24
2.24831e-18
1.46731e-12
7.36104e-07
-3.42353e-29
1.23915e-24
2.25421e-18
1.46951e-12
7.36662e-07
-3.42174e-29
1.242e-24
2.25546e-18
1.46997e-12
7.36782e-07
-3.38195e-29
1.27857e-24
2.26665e-18
1.47342e-12
7.37406e-07
-3.37076e-29
1.2858e-24
2.26806e-18
1.47377e-12
7.37448e-07
-3.00609e-29
1.44624e-24
2.26473e-18
1.46258e-12
7.30873e-07
-2.65018e-29
3.7007e-24
3.49941e-18
1.89415e-12
7.28057e-07
-3.01981e-29
3.52062e-24
3.49732e-18
1.90559e-12
7.34698e-07
-3.03144e-29
3.51137e-24
3.49514e-18
1.9051e-12
7.3466e-07
-3.07452e-29
3.45901e-24
3.47777e-18
1.90046e-12
7.34059e-07
-3.07662e-29
3.45458e-24
3.47588e-18
1.89986e-12
7.33941e-07
-3.08327e-29
3.43488e-24
3.46691e-18
1.89702e-12
7.33393e-07
-3.08379e-29
3.43297e-24
3.466e-18
1.89672e-12
7.33331e-07
-3.08558e-29
3.42552e-24
3.46243e-18
1.89556e-12
7.33101e-07
-3.08572e-29
3.42483e-24
3.46209e-18
1.89545e-12
7.33078e-07
-3.08614e-29
3.42291e-24
3.46116e-18
1.89514e-12
7.33017e-07
-3.08614e-29
3.42291e-24
3.46116e-18
1.89514e-12
7.33017e-07
-3.08572e-29
3.42483e-24
3.46209e-18
1.89545e-12
7.33078e-07
-3.08558e-29
3.42552e-24
3.46243e-18
1.89556e-12
7.33101e-07
-3.08379e-29
3.43297e-24
3.466e-18
1.89672e-12
7.33331e-07
-3.08327e-29
3.43488e-24
3.46691e-18
1.89702e-12
7.33393e-07
-3.07662e-29
3.45458e-24
3.47588e-18
1.89986e-12
7.33941e-07
-3.07452e-29
3.45901e-24
3.47777e-18
1.90046e-12
7.34059e-07
-3.03144e-29
3.51137e-24
3.49514e-18
1.9051e-12
7.3466e-07
-3.01981e-29
3.52062e-24
3.49732e-18
1.90559e-12
7.34698e-07
-2.65018e-29
3.7007e-24
3.49941e-18
1.89415e-12
7.28057e-07
-2.08089e-29
6.91034e-24
5.01276e-18
2.32341e-12
7.25296e-07
-2.46005e-29
6.69589e-24
5.00247e-18
2.33513e-12
7.32002e-07
-2.47239e-29
6.68369e-24
4.99932e-18
2.33451e-12
7.31968e-07
-2.52081e-29
6.60856e-24
4.97432e-18
2.3287e-12
7.31388e-07
-2.52342e-29
6.60192e-24
4.97166e-18
2.32797e-12
7.31273e-07
-2.53252e-29
6.57145e-24
4.95895e-18
2.32449e-12
7.30734e-07
-2.53329e-29
6.56849e-24
4.95767e-18
2.32413e-12
7.30673e-07
-2.53603e-29
6.55681e-24
4.95262e-18
2.32272e-12
7.30447e-07
-2.53627e-29
6.55573e-24
4.95214e-18
2.32258e-12
7.30424e-07
-2.53693e-29
6.55271e-24
4.95083e-18
2.32221e-12
7.30364e-07
-2.53693e-29
6.55271e-24
4.95083e-18
2.32221e-12
7.30364e-07
-2.53627e-29
6.55573e-24
4.95214e-18
2.32258e-12
7.30424e-07
-2.53603e-29
6.55681e-24
4.95262e-18
2.32272e-12
7.30447e-07
-2.53329e-29
6.56849e-24
4.95767e-18
2.32413e-12
7.30673e-07
-2.53252e-29
6.57145e-24
4.95895e-18
2.32449e-12
7.30734e-07
-2.52342e-29
6.60192e-24
4.97166e-18
2.32797e-12
7.31273e-07
-2.52081e-29
6.60856e-24
4.97432e-18
2.3287e-12
7.31388e-07
-2.47239e-29
6.68369e-24
4.99932e-18
2.33451e-12
7.31968e-07
-2.46005e-29
6.69589e-24
5.00247e-18
2.33513e-12
7.32002e-07
-2.08089e-29
6.91034e-24
5.01276e-18
2.32341e-12
7.25296e-07
-1.22283e-29
1.12493e-23
6.80272e-18
2.75028e-12
7.22586e-07
-1.61817e-29
1.09822e-23
6.78145e-18
2.76232e-12
7.29355e-07
-1.6316e-29
1.0966e-23
6.77716e-18
2.76157e-12
7.29324e-07
-1.68812e-29
1.08598e-23
6.74312e-18
2.75461e-12
7.28766e-07
-1.6915e-29
1.08502e-23
6.73956e-18
2.75376e-12
7.28653e-07
-1.70429e-29
1.08052e-23
6.72244e-18
2.74965e-12
7.28123e-07
-1.70541e-29
1.08009e-23
6.72073e-18
2.74923e-12
7.28063e-07
-1.7096e-29
1.07835e-23
6.71394e-18
2.74757e-12
7.27841e-07
-1.70996e-29
1.07819e-23
6.7133e-18
2.74741e-12
7.27818e-07
-1.711e-29
1.07774e-23
6.71153e-18
2.74698e-12
7.2776e-07
-1.711e-29
1.07774e-23
6.71153e-18
2.74698e-12
7.2776e-07
-1.70996e-29
1.07819e-23
6.7133e-18
2.74741e-12
7.27818e-07
-1.7096e-29
1.07835e-23
6.71394e-18
2.74757e-12
7.27841e-07
-1.70541e-29
1.08009e-23
6.72073e-18
2.74923e-12
7.28063e-07
-1.70429e-29
1.08052e-23
6.72244e-18
2.74965e-12
7.28123e-07
-1.6915e-29
1.08502e-23
6.73956e-18
2.75376e-12
7.28653e-07
-1.68812e-29
1.08598e-23
6.74312e-18
2.75461e-12
7.28766e-07
-1.6316e-29
1.0966e-23
6.77716e-18
2.76157e-12
7.29324e-07
-1.61817e-29
1.09822e-23
6.78145e-18
2.76232e-12
7.29355e-07
-1.22283e-29
1.12493e-23
6.80272e-18
2.75028e-12
7.22586e-07
1.10144e-31
1.68903e-23
8.86712e-18
3.17467e-12
7.19923e-07
-4.09576e-30
1.65485e-23
8.83214e-18
3.18708e-12
7.26754e-07
-4.24575e-30
1.6527e-23
8.82655e-18
3.18621e-12
7.26727e-07
-4.92831e-30
1.63804e-23
8.78209e-18
3.17813e-12
7.26189e-07
-4.9729e-30
1.63669e-23
8.77748e-18
3.17715e-12
7.26078e-07
-5.15374e-30
1.63032e-23
8.75531e-18
3.17244e-12
7.25557e-07
-5.16997e-30
1.6297e-23
8.75311e-18
3.17195e-12
7.25498e-07
-5.23253e-30
1.62723e-23
8.74432e-18
3.17004e-12
7.25279e-07
-5.23804e-30
1.627e-23
8.7435e-18
3.16986e-12
7.25257e-07
-5.25376e-30
1.62636e-23
8.74121e-18
3.16936e-12
7.25199e-07
-5.25376e-30
1.62636e-23
8.74121e-18
3.16936e-12
7.25199e-07
-5.23804e-30
1.627e-23
8.7435e-18
3.16986e-12
7.25257e-07
-5.23253e-30
1.62723e-23
8.74432e-18
3.17004e-12
7.25279e-07
-5.16997e-30
1.6297e-23
8.75311e-18
3.17195e-12
7.25498e-07
-5.15373e-30
1.63032e-23
8.75531e-18
3.17244e-12
7.25557e-07
-4.97289e-30
1.63669e-23
8.77748e-18
3.17715e-12
7.26078e-07
-4.92831e-30
1.63804e-23
8.78209e-18
3.17813e-12
7.26189e-07
-4.24574e-30
1.6527e-23
8.82655e-18
3.18621e-12
7.26727e-07
-4.09574e-30
1.65485e-23
8.83214e-18
3.18708e-12
7.26754e-07
1.10141e-31
1.68903e-23
8.86712e-18
3.17467e-12
7.19923e-07
1.71926e-29
2.40042e-23
1.12037e-17
3.59652e-12
7.17303e-07
1.2615e-29
2.35623e-23
1.11523e-17
3.60934e-12
7.24194e-07
1.24433e-29
2.35342e-23
1.11453e-17
3.60834e-12
7.24171e-07
1.15977e-29
2.33364e-23
1.1089e-17
3.59918e-12
7.23653e-07
1.15382e-29
2.33181e-23
1.10833e-17
3.59808e-12
7.23544e-07
1.12844e-29
2.32307e-23
1.10554e-17
3.59276e-12
7.23031e-07
1.12612e-29
2.32223e-23
1.10527e-17
3.59221e-12
7.22974e-07
1.11701e-29
2.31883e-23
1.10416e-17
3.59006e-12
7.22758e-07
1.11621e-29
2.31852e-23
1.10406e-17
3.58986e-12
7.22737e-07
1.1139e-29
2.31764e-23
1.10377e-17
3.5893e-12
7.2268e-07
1.1139e-29
2.31764e-23
1.10377e-17
3.5893e-12
7.2268e-07
1.11621e-29
2.31852e-23
1.10406e-17
3.58986e-12
7.22737e-07
1.11702e-29
2.31883e-23
1.10416e-17
3.59006e-12
7.22758e-07
1.12612e-29
2.32223e-23
1.10527e-17
3.59221e-12
7.22974e-07
1.12844e-29
2.32307e-23
1.10554e-17
3.59276e-12
7.23031e-07
1.15382e-29
2.33181e-23
1.10833e-17
3.59808e-12
7.23544e-07
1.15977e-29
2.33364e-23
1.1089e-17
3.59918e-12
7.23653e-07
1.24433e-29
2.35342e-23
1.11453e-17
3.60834e-12
7.24171e-07
1.2615e-29
2.35623e-23
1.11523e-17
3.60934e-12
7.24194e-07
1.71926e-29
2.40042e-23
1.12037e-17
3.59652e-12
7.17303e-07
4.01203e-29
3.27604e-23
1.38102e-17
4.01573e-12
7.14723e-07
3.50197e-29
3.21892e-23
1.37397e-17
4.02901e-12
7.21673e-07
3.48186e-29
3.21529e-23
1.3731e-17
4.0279e-12
7.21653e-07
3.3754e-29
3.18922e-23
1.36617e-17
4.01767e-12
7.21155e-07
3.36746e-29
3.1868e-23
1.36547e-17
4.01645e-12
7.21048e-07
3.3323e-29
3.17517e-23
1.36205e-17
4.01054e-12
7.20544e-07
3.32906e-29
3.17405e-23
1.36171e-17
4.00994e-12
7.20487e-07
3.31615e-29
3.16952e-23
1.36036e-17
4.00755e-12
7.20275e-07
3.31501e-29
3.1691e-23
1.36023e-17
4.00733e-12
7.20254e-07
3.31171e-29
3.16793e-23
1.35988e-17
4.0067e-12
7.20198e-07
3.31171e-29
3.16793e-23
1.35988e-17
4.0067e-12
7.20198e-07
3.31501e-29
3.1691e-23
1.36023e-17
4.00733e-12
7.20254e-07
3.31615e-29
3.16952e-23
1.36036e-17
4.00755e-12
7.20275e-07
3.32906e-29
3.17405e-23
1.36171e-17
4.00994e-12
7.20487e-07
3.3323e-29
3.17517e-23
1.36205e-17
4.01054e-12
7.20544e-07
3.36746e-29
3.1868e-23
1.36547e-17
4.01645e-12
7.21048e-07
3.3754e-29
3.18922e-23
1.36617e-17
4.01767e-12
7.21155e-07
3.48186e-29
3.21529e-23
1.3731e-17
4.0279e-12
7.21653e-07
3.50197e-29
3.21892e-23
1.37397e-17
4.02901e-12
7.21673e-07
4.01203e-29
3.27604e-23
1.38102e-17
4.01573e-12
7.14723e-07
7.01091e-29
4.33265e-23
1.66842e-17
4.43224e-12
7.12179e-07
6.42976e-29
4.25932e-23
1.65919e-17
4.44601e-12
7.19185e-07
6.40583e-29
4.25472e-23
1.65814e-17
4.44479e-12
7.1917e-07
6.27069e-29
4.22105e-23
1.64978e-17
4.43353e-12
7.18691e-07
6.26018e-29
4.21793e-23
1.64894e-17
4.43219e-12
7.18585e-07
6.21227e-29
4.20282e-23
1.64482e-17
4.4257e-12
7.18089e-07
6.20783e-29
4.20137e-23
1.64442e-17
4.42504e-12
7.18034e-07
6.18997e-29
4.19547e-23
1.6428e-17
4.42242e-12
7.17825e-07
6.18838e-29
4.19494e-23
1.64265e-17
4.42218e-12
7.17804e-07
6.1838e-29
4.19341e-23
1.64222e-17
4.4215e-12
7.17749e-07
6.1838e-29
4.19341e-23
1.64222e-17
4.4215e-12
7.17749e-07
6.18838e-29
4.19494e-23
1.64265e-17
4.42218e-12
7.17804e-07
6.18997e-29
4.19547e-23
1.6428e-17
4.42242e-12
7.17825e-07
6.20783e-29
4.20137e-23
1.64442e-17
4.42504e-12
7.18034e-07
6.21227e-29
4.20282e-23
1.64482e-17
4.4257e-12
7.18089e-07
6.26018e-29
4.21793e-23
1.64894e-17
4.43219e-12
7.18585e-07
6.27069e-29
4.22105e-23
1.64978e-17
4.43353e-12
7.18691e-07
6.40584e-29
4.25472e-23
1.65814e-17
4.44479e-12
7.1917e-07
6.42976e-29
4.25932e-23
1.65919e-17
4.44601e-12
7.19185e-07
7.01091e-29
4.33265e-23
1.66842e-17
4.43224e-12
7.12179e-07
1.08489e-28
5.58684e-23
1.98232e-17
4.84594e-12
7.09662e-07
1.01738e-28
5.49366e-23
1.97064e-17
4.86025e-12
7.16725e-07
1.0145e-28
5.4879e-23
1.9694e-17
4.85893e-12
7.16713e-07
9.97316e-29
5.44524e-23
1.95948e-17
4.84667e-12
7.16253e-07
9.95937e-29
5.44129e-23
1.95849e-17
4.84521e-12
7.16149e-07
9.89521e-29
5.42207e-23
1.95363e-17
4.83816e-12
7.15661e-07
9.88925e-29
5.42023e-23
1.95315e-17
4.83744e-12
7.15606e-07
9.86507e-29
5.41273e-23
1.95123e-17
4.8346e-12
7.15401e-07
9.86292e-29
5.41205e-23
1.95106e-17
4.83433e-12
7.1538e-07
9.8567e-29
5.4101e-23
1.95056e-17
4.83359e-12
7.15326e-07
9.8567e-29
5.4101e-23
1.95056e-17
4.83359e-12
7.15326e-07
9.86292e-29
5.41205e-23
1.95106e-17
4.83433e-12
7.1538e-07
9.86507e-29
5.41273e-23
1.95123e-17
4.8346e-12
7.15401e-07
9.88925e-29
5.42023e-23
1.95315e-17
4.83744e-12
7.15606e-07
9.89521e-29
5.42207e-23
1.95363e-17
4.83816e-12
7.15661e-07
9.95937e-29
5.44129e-23
1.95849e-17
4.84521e-12
7.16149e-07
9.97316e-29
5.44524e-23
1.95948e-17
4.84667e-12
7.16253e-07
1.0145e-28
5.4879e-23
1.9694e-17
4.85893e-12
7.16712e-07
1.01738e-28
5.49366e-23
1.97064e-17
4.86025e-12
7.16725e-07
1.08489e-28
5.58684e-23
1.98232e-17
4.84594e-12
7.09662e-07
1.56702e-28
7.05502e-23
2.32246e-17
5.25675e-12
7.07143e-07
1.48739e-28
6.93798e-23
2.30808e-17
5.27164e-12
7.14262e-07
1.4839e-28
6.93086e-23
2.30663e-17
5.27022e-12
7.14253e-07
1.46211e-28
6.8777e-23
2.29504e-17
5.25698e-12
7.13812e-07
1.46032e-28
6.8728e-23
2.29388e-17
5.25542e-12
7.1371e-07
1.45187e-28
6.84877e-23
2.28821e-17
5.24781e-12
7.1323e-07
1.45109e-28
6.84649e-23
2.28766e-17
5.24704e-12
7.13176e-07
1.44788e-28
6.83711e-23
2.28542e-17
5.24397e-12
7.12974e-07
1.44759e-28
6.83627e-23
2.28521e-17
5.24369e-12
7.12954e-07
1.44677e-28
6.83384e-23
2.28463e-17
5.24289e-12
7.12901e-07
1.44677e-28
6.83384e-23
2.28463e-17
5.24289e-12
7.12901e-07
1.44759e-28
6.83627e-23
2.28521e-17
5.24369e-12
7.12954e-07
1.44788e-28
6.83711e-23
2.28542e-17
5.24397e-12
7.12974e-07
1.45109e-28
6.84649e-23
2.28766e-17
5.24704e-12
7.13176e-07
1.45187e-28
6.84877e-23
2.28821e-17
5.24781e-12
7.1323e-07
1.46032e-28
6.8728e-23
2.29388e-17
5.25542e-12
7.1371e-07
1.46211e-28
6.8777e-23
2.29504e-17
5.25698e-12
7.13812e-07
1.4839e-28
6.93086e-23
2.30663e-17
5.27022e-12
7.14253e-07
1.48739e-28
6.93798e-23
2.30808e-17
5.27164e-12
7.14262e-07
1.56702e-28
7.05502e-23
2.32246e-17
5.25675e-12
7.07143e-07
-3.96912e-06
-6.62046e-07
-1.90351e-08
-1.17459e-10
-1.37511e-13
1.3461e-16
1.69727e-16
1.69994e-16
1.70053e-16
1.70062e-16
1.70074e-16
1.70133e-16
1.70455e-16
1.70871e-16
1.74433e-16
1.77627e-16
2.11892e-16
2.31128e-16
7.23976e-16
8.4813e-16
-3.95968e-06
-6.87871e-07
-2.05431e-08
-1.31435e-10
-1.59837e-13
1.27773e-16
1.69718e-16
1.69991e-16
1.70051e-16
1.70059e-16
1.70062e-16
1.7011e-16
1.70438e-16
1.70861e-16
1.74479e-16
1.77708e-16
2.12387e-16
2.31745e-16
7.29952e-16
8.55401e-16
-3.96137e-06
-6.88438e-07
-2.05616e-08
-1.31584e-10
-1.60078e-13
1.2769e-16
1.69718e-16
1.69991e-16
1.70051e-16
1.70059e-16
1.70062e-16
1.70111e-16
1.7044e-16
1.70863e-16
1.74482e-16
1.77711e-16
2.12397e-16
2.31756e-16
7.3001e-16
8.55459e-16
-3.96681e-06
-6.8995e-07
-2.0583e-08
-1.31669e-10
-1.60215e-13
1.27608e-16
1.69718e-16
1.69991e-16
1.70051e-16
1.7006e-16
1.70064e-16
1.70118e-16
1.70447e-16
1.7087e-16
1.74492e-16
1.77724e-16
2.12428e-16
2.3179e-16
7.30183e-16
8.55614e-16
-3.96736e-06
-6.89988e-07
-2.05815e-08
-1.31649e-10
-1.60181e-13
1.27616e-16
1.69718e-16
1.69991e-16
1.70051e-16
1.7006e-16
1.70064e-16
1.70118e-16
1.70447e-16
1.7087e-16
1.74493e-16
1.77725e-16
2.12429e-16
2.31791e-16
7.30187e-16
8.55617e-16
-3.9691e-06
-6.89916e-07
-2.05674e-08
-1.31524e-10
-1.59994e-13
1.27663e-16
1.69718e-16
1.69991e-16
1.70051e-16
1.7006e-16
1.70064e-16
1.70118e-16
1.70447e-16
1.7087e-16
1.74493e-16
1.77725e-16
2.12431e-16
2.31792e-16
7.30193e-16
8.55621e-16
-3.96937e-06
-6.89915e-07
-2.05662e-08
-1.31513e-10
-1.59975e-13
1.27667e-16
1.69718e-16
1.69991e-16
1.70051e-16
1.7006e-16
1.70064e-16
1.70118e-16
1.70447e-16
1.7087e-16
1.74493e-16
1.77725e-16
2.12431e-16
2.31792e-16
7.30193e-16
8.55621e-16
-3.97002e-06
-6.8986e-07
-2.05607e-08
-1.31468e-10
-1.59912e-13
1.27683e-16
1.69718e-16
1.69991e-16
1.70051e-16
1.7006e-16
1.70064e-16
1.70118e-16
1.70447e-16
1.7087e-16
1.74493e-16
1.77725e-16
2.12431e-16
2.31792e-16
7.30194e-16
8.55621e-16
-3.97013e-06
-6.8986e-07
-2.05603e-08
-1.31465e-10
-1.59906e-13
1.27685e-16
1.69718e-16
1.69991e-16
1.70051e-16
1.7006e-16
1.70064e-16
1.70118e-16
1.70447e-16
1.7087e-16
1.74493e-16
1.77725e-16
2.12431e-16
2.31792e-16
7.30194e-16
8.55621e-16
-3.9703e-06
-6.89846e-07
-2.0559e-08
-1.31455e-10
-1.59893e-13
1.27688e-16
1.69718e-16
1.69991e-16
1.70051e-16
1.7006e-16
1.70064e-16
1.70118e-16
1.70447e-16
1.7087e-16
1.74493e-16
1.77725e-16
2.12431e-16
2.31792e-16
7.30194e-16
8.55621e-16
-3.9703e-06
-6.89846e-07
-2.0559e-08
-1.31455e-10
-1.59893e-13
1.27688e-16
1.69718e-16
1.69991e-16
1.70051e-16
1.7006e-16
1.70064e-16
1.70118e-16
1.70447e-16
1.7087e-16
1.74493e-16
1.77725e-16
2.12431e-16
2.31792e-16
7.30194e-16
8.55621e-16
-3.97013e-06
-6.8986e-07
-2.05603e-08
-1.31465e-10
-1.59906e-13
1.27685e-16
1.69718e-16
1.69991e-16
1.70051e-16
1.7006e-16
1.70064e-16
1.70118e-16
1.70447e-16
1.7087e-16
1.74493e-16
1.77725e-16
2.12431e-16
2.31792e-16
7.30194e-16
8.55621e-16
-3.97002e-06
-6.8986e-07
-2.05607e-08
-1.31468e-10
-1.59912e-13
1.27683e-16
1.69718e-16
1.69991e-16
1.70051e-16
1.7006e-16
1.70064e-16
1.70118e-16
1.70447e-16
1.7087e-16
1.74493e-16
1.77725e-16
2.12431e-16
2.31792e-16
7.30194e-16
8.55621e-16
-3.96937e-06
-6.89915e-07
-2.05662e-08
-1.31513e-10
-1.59975e-13
1.27667e-16
1.69718e-16
1.69991e-16
1.70051e-16
1.7006e-16
1.70064e-16
1.70118e-16
1.70447e-16
1.7087e-16
1.74493e-16
1.77725e-16
2.12431e-16
2.31792e-16
7.30193e-16
8.55621e-16
-3.9691e-06
-6.89916e-07
-2.05674e-08
-1.31524e-10
-1.59994e-13
1.27663e-16
1.69718e-16
1.69991e-16
1.70051e-16
1.7006e-16
1.70064e-16
1.70118e-16
1.70447e-16
1.7087e-16
1.74493e-16
1.77725e-16
2.12431e-16
2.31792e-16
7.30193e-16
8.55621e-16
-3.96736e-06
-6.89988e-07
-2.05815e-08
-1.31649e-10
-1.60181e-13
1.27616e-16
1.69718e-16
1.69991e-16
1.70051e-16
1.7006e-16
1.70064e-16
1.70118e-16
1.70447e-16
1.7087e-16
1.74493e-16
1.77725e-16
2.12429e-16
2.31791e-16
7.30187e-16
8.55617e-16
-3.96681e-06
-6.8995e-07
-2.0583e-08
-1.31669e-10
-1.60215e-13
1.27608e-16
1.69718e-16
1.69991e-16
1.70051e-16
1.7006e-16
1.70064e-16
1.70118e-16
1.70447e-16
1.7087e-16
1.74492e-16
1.77724e-16
2.12428e-16
2.3179e-16
7.30183e-16
8.55614e-16
-3.96137e-06
-6.88438e-07
-2.05616e-08
-1.31584e-10
-1.60078e-13
1.2769e-16
1.69718e-16
1.69991e-16
1.70051e-16
1.70059e-16
1.70062e-16
1.70111e-16
1.7044e-16
1.70863e-16
1.74482e-16
1.77711e-16
2.12397e-16
2.31756e-16
7.3001e-16
8.55459e-16
-3.95968e-06
-6.87871e-07
-2.05431e-08
-1.31435e-10
-1.59837e-13
1.27773e-16
1.69718e-16
1.69991e-16
1.70051e-16
1.70059e-16
1.70062e-16
1.7011e-16
1.70438e-16
1.70861e-16
1.74479e-16
1.77708e-16
2.12387e-16
2.31745e-16
7.29952e-16
8.55401e-16
-3.96912e-06
-6.62046e-07
-1.90351e-08
-1.17459e-10
-1.37511e-13
1.3461e-16
1.69727e-16
1.69994e-16
1.70053e-16
1.70062e-16
1.70074e-16
1.70133e-16
1.70455e-16
1.70871e-16