/*--------------------------------*- C++ -*----------------------------------*\
  =========                 |
  \\      /  F ield         | OpenFOAM: The Open Source CFD Toolbox
   \\    /   O peration     | Website:  https://openfoam.org
    \\  /    A nd           | Version:  8
     \\/     M anipulation  |
\*---------------------------------------------------------------------------*/
FoamFile
{
    version     2.0;
    format      ascii;
    class       volScalarField;
    location    "1.9";
    object      p;
}
// * * * * * * * * * * * * * * * * * * * * * * * * * * * * * * * * * * * * * //

dimensions      [0 2 -2 0 0 0 0];

internalField   nonuniform List<scalar> 
180000
(
0.000958566
0.000894087
0.00093669
0.00079482
0.000871391
0.000943986
0.000879768
0.000922069
0.000781611
0.000856932
0.000943362
0.000879173
0.000921445
0.000781094
0.000856342
0.000939509
0.000875473
0.000917578
0.000777846
0.000852708
0.000939182
0.000875161
0.000917248
0.000777574
0.000852396
0.000937699
0.000873746
0.000915754
0.000776335
0.000850993
0.000937552
0.000873606
0.000915604
0.000776212
0.000850851
0.000936981
0.000873061
0.000915028
0.000775734
0.000850308
0.000936927
0.00087301
0.000914972
0.000775689
0.000850256
0.000936778
0.000872868
0.000914822
0.000775564
0.000850114
0.000936778
0.000872868
0.000914822
0.000775564
0.000850114
0.000936927
0.00087301
0.000914972
0.000775689
0.000850256
0.000936981
0.000873061
0.000915028
0.000775734
0.000850308
0.000937552
0.000873606
0.000915604
0.000776212
0.000850851
0.000937699
0.000873746
0.000915754
0.000776335
0.000850993
0.000939182
0.000875161
0.000917248
0.000777574
0.000852396
0.000939509
0.000875473
0.000917578
0.000777846
0.000852708
0.000943362
0.000879173
0.000921445
0.000781094
0.000856342
0.000943986
0.000879768
0.000922069
0.000781611
0.000856932
0.000958566
0.000894087
0.00093669
0.00079482
0.000871391
0.000757773
0.000731794
0.00074993
0.000682571
0.000722101
0.000752333
0.000725465
0.000744132
0.000675411
0.000715361
0.000752096
0.000725198
0.00074388
0.000675126
0.000715081
0.000750584
0.000723491
0.000742271
0.000673301
0.000713316
0.000750456
0.000723347
0.000742134
0.000673148
0.000713165
0.000749868
0.000722689
0.000741506
0.000672448
0.000712478
0.000749809
0.000722624
0.000741444
0.000672379
0.000712409
0.000749581
0.000722369
0.0007412
0.000672108
0.000712142
0.00074956
0.000722345
0.000741177
0.000672082
0.000712116
0.0007495
0.000722278
0.000741113
0.000672011
0.000712046
0.0007495
0.000722278
0.000741113
0.000672011
0.000712046
0.00074956
0.000722345
0.000741177
0.000672082
0.000712116
0.000749581
0.000722369
0.0007412
0.000672108
0.000712142
0.000749809
0.000722624
0.000741444
0.000672379
0.000712409
0.000749868
0.000722689
0.000741506
0.000672448
0.000712478
0.000750456
0.000723347
0.000742134
0.000673148
0.000713165
0.000750584
0.000723491
0.000742271
0.000673301
0.000713316
0.000752096
0.000725198
0.00074388
0.000675126
0.000715081
0.000752333
0.000725465
0.000744132
0.000675411
0.000715361
0.000757773
0.000731794
0.00074993
0.000682571
0.000722101
0.000546825
0.000525065
0.000540642
0.000486082
0.000520339
0.00054218
0.000520017
0.000535821
0.000480759
0.000515052
0.000541979
0.000519805
0.000535613
0.000480548
0.000514833
0.000540666
0.000518414
0.00053425
0.000479154
0.000513413
0.000540556
0.000518299
0.000534135
0.000479039
0.000513293
0.000540045
0.000517763
0.000533603
0.000478504
0.00051274
0.000539996
0.00051771
0.000533551
0.000478451
0.000512685
0.000539798
0.000517503
0.000533344
0.000478244
0.00051247
0.000539779
0.000517483
0.000533325
0.000478224
0.00051245
0.000539728
0.000517429
0.000533271
0.00047817
0.000512394
0.000539728
0.000517429
0.000533271
0.00047817
0.000512394
0.000539779
0.000517483
0.000533325
0.000478224
0.00051245
0.000539798
0.000517503
0.000533344
0.000478244
0.00051247
0.000539996
0.00051771
0.000533551
0.000478451
0.000512685
0.000540045
0.000517763
0.000533603
0.000478504
0.00051274
0.000540556
0.000518299
0.000534135
0.000479039
0.000513293
0.000540666
0.000518414
0.00053425
0.000479154
0.000513413
0.000541979
0.000519805
0.000535613
0.000480548
0.000514833
0.00054218
0.000520017
0.000535821
0.000480759
0.000515052
0.000546825
0.000525065
0.000540642
0.000486082
0.000520339
0.000517201
0.000490283
0.000509556
0.000445442
0.000487575
0.0005113
0.0004843
0.000503583
0.000439656
0.000481459
0.000511044
0.000484048
0.000503325
0.000439425
0.000481204
0.00050938
0.000482394
0.000501637
0.000437893
0.000479547
0.000509241
0.000482257
0.000501495
0.000437767
0.000479408
0.000508596
0.00048162
0.000500838
0.00043718
0.000478764
0.000508533
0.000481559
0.000500774
0.000437123
0.0004787
0.000508283
0.000481312
0.000500519
0.000436895
0.00047845
0.00050826
0.000481289
0.000500495
0.000436873
0.000478426
0.000508194
0.000481225
0.000500428
0.000436814
0.00047836
0.000508194
0.000481225
0.000500428
0.000436814
0.00047836
0.00050826
0.000481289
0.000500495
0.000436873
0.000478426
0.000508283
0.000481312
0.000500519
0.000436895
0.00047845
0.000508533
0.000481559
0.000500774
0.000437123
0.0004787
0.000508596
0.00048162
0.000500838
0.00043718
0.000478764
0.000509241
0.000482257
0.000501495
0.000437767
0.000479408
0.00050938
0.000482394
0.000501637
0.000437893
0.000479547
0.000511044
0.000484048
0.000503325
0.000439425
0.000481204
0.0005113
0.0004843
0.000503583
0.000439656
0.000481459
0.000517201
0.000490283
0.000509556
0.000445442
0.000487575
0.000541731
0.000513308
0.000534015
0.000465556
0.000513513
0.000535528
0.000507007
0.000527734
0.000459463
0.0005071
0.000535256
0.000506739
0.000527459
0.000459217
0.000506829
0.000533478
0.00050497
0.000525655
0.000457578
0.000505057
0.00053333
0.000504825
0.000525504
0.000457444
0.000504908
0.00053264
0.000504143
0.000524802
0.000456814
0.000504219
0.000532573
0.000504077
0.000524733
0.000456753
0.00050415
0.000532306
0.000503813
0.00052446
0.000456509
0.000503882
0.000532281
0.000503788
0.000524434
0.000456486
0.000503857
0.000532211
0.000503719
0.000524363
0.000456423
0.000503787
0.000532211
0.000503719
0.000524363
0.000456423
0.000503787
0.000532281
0.000503788
0.000524434
0.000456486
0.000503857
0.000532306
0.000503813
0.00052446
0.000456509
0.000503882
0.000532573
0.000504077
0.000524733
0.000456753
0.00050415
0.00053264
0.000504143
0.000524802
0.000456814
0.000504219
0.00053333
0.000504825
0.000525504
0.000457444
0.000504908
0.000533478
0.00050497
0.000525655
0.000457578
0.000505057
0.000535256
0.000506739
0.000527459
0.000459217
0.000506829
0.000535528
0.000507007
0.000527734
0.000459463
0.0005071
0.000541731
0.000513308
0.000534015
0.000465556
0.000513513
0.000553938
0.000526318
0.000546947
0.000479041
0.00053046
0.000547968
0.0005202
0.000540885
0.000473054
0.00052424
0.000547704
0.000519937
0.000540617
0.00047281
0.000523973
0.000545955
0.000518182
0.000538838
0.000471164
0.000522208
0.00054581
0.000518039
0.00053869
0.00047103
0.000522061
0.00054513
0.000517361
0.000537995
0.000470397
0.000521373
0.000545064
0.000517296
0.000537927
0.000470336
0.000521305
0.0005448
0.000517033
0.000537657
0.00047009
0.000521038
0.000544776
0.000517009
0.000537632
0.000470068
0.000521012
0.000544707
0.00051694
0.000537561
0.000470003
0.000520942
0.000544707
0.00051694
0.000537561
0.000470003
0.000520942
0.000544776
0.000517009
0.000537632
0.000470068
0.000521012
0.0005448
0.000517033
0.000537657
0.00047009
0.000521038
0.000545064
0.000517296
0.000537927
0.000470336
0.000521305
0.00054513
0.000517361
0.000537995
0.000470397
0.000521373
0.00054581
0.000518039
0.00053869
0.00047103
0.000522061
0.000545955
0.000518182
0.000538838
0.000471164
0.000522208
0.000547704
0.000519937
0.000540617
0.00047281
0.000523973
0.000547968
0.0005202
0.000540885
0.000473054
0.00052424
0.000553938
0.000526318
0.000546947
0.000479041
0.00053046
0.000553235
0.000526442
0.00054695
0.000480156
0.000534823
0.000547488
0.000520539
0.000541112
0.000474357
0.000528836
0.000547231
0.000520283
0.000540852
0.000474119
0.000528575
0.000545512
0.000518554
0.000539102
0.00047249
0.000526832
0.00054537
0.000518413
0.000538957
0.000472359
0.000526687
0.0005447
0.000517744
0.000538272
0.000471731
0.000526006
0.000544636
0.00051768
0.000538206
0.00047167
0.000525939
0.000544376
0.000517421
0.000537939
0.000471426
0.000525674
0.000544352
0.000517397
0.000537915
0.000471404
0.000525649
0.000544283
0.000517329
0.000537845
0.00047134
0.00052558
0.000544283
0.000517329
0.000537845
0.00047134
0.00052558
0.000544352
0.000517397
0.000537915
0.000471404
0.000525649
0.000544376
0.000517421
0.000537939
0.000471426
0.000525674
0.000544636
0.00051768
0.000538206
0.00047167
0.000525939
0.0005447
0.000517744
0.000538272
0.000471731
0.000526006
0.00054537
0.000518413
0.000538957
0.000472359
0.000526687
0.000545512
0.000518554
0.000539102
0.00047249
0.000526832
0.000547231
0.000520283
0.000540852
0.000474119
0.000528575
0.000547488
0.000520539
0.000541112
0.000474357
0.000528836
0.000553235
0.000526442
0.00054695
0.000480156
0.000534823
0.000550352
0.000523956
0.000544608
0.00047827
0.000536336
0.000544723
0.000518185
0.000538896
0.000472607
0.000530498
0.00054447
0.000517933
0.00053864
0.000472373
0.000530241
0.000542755
0.000516211
0.000536896
0.000470751
0.000528501
0.000542614
0.000516071
0.000536752
0.00047062
0.000528357
0.000541944
0.000515403
0.000536068
0.000469994
0.000527676
0.00054188
0.00051534
0.000536002
0.000469934
0.00052761
0.00054162
0.00051508
0.000535736
0.00046969
0.000527344
0.000541596
0.000515057
0.000535711
0.000469668
0.000527319
0.000541528
0.000514989
0.000535641
0.000469604
0.00052725
0.000541528
0.000514989
0.000535641
0.000469604
0.00052725
0.000541596
0.000515057
0.000535711
0.000469668
0.000527319
0.00054162
0.00051508
0.000535736
0.00046969
0.000527344
0.00054188
0.00051534
0.000536002
0.000469934
0.00052761
0.000541944
0.000515403
0.000536068
0.000469994
0.000527676
0.000542614
0.000516071
0.000536752
0.00047062
0.000528357
0.000542755
0.000516211
0.000536896
0.000470751
0.000528501
0.00054447
0.000517933
0.00053864
0.000472373
0.000530241
0.000544723
0.000518185
0.000538896
0.000472607
0.000530498
0.000550352
0.000523956
0.000544608
0.00047827
0.000536336
0.000548983
0.000522837
0.000543719
0.000477589
0.000538697
0.000543439
0.000517163
0.0005381
0.00047203
0.000532967
0.000543188
0.000516914
0.000537846
0.000471798
0.000532711
0.000541469
0.00051519
0.0005361
0.000470175
0.000530966
0.000541329
0.000515051
0.000535956
0.000470044
0.000530822
0.000540657
0.000514381
0.00053527
0.000469416
0.000530138
0.000540592
0.000514318
0.000535204
0.000469356
0.000530072
0.000540331
0.000514057
0.000534937
0.000469112
0.000529805
0.000540307
0.000514034
0.000534912
0.000469089
0.00052978
0.000540238
0.000513965
0.000534842
0.000469025
0.00052971
0.000540238
0.000513965
0.000534842
0.000469025
0.00052971
0.000540307
0.000514034
0.000534912
0.000469089
0.00052978
0.000540331
0.000514057
0.000534937
0.000469112
0.000529805
0.000540592
0.000514318
0.000535204
0.000469356
0.000530072
0.000540657
0.000514381
0.00053527
0.000469416
0.000530138
0.000541329
0.000515051
0.000535956
0.000470044
0.000530822
0.000541469
0.00051519
0.0005361
0.000470175
0.000530966
0.000543188
0.000516914
0.000537846
0.000471798
0.000532711
0.000543439
0.000517163
0.0005381
0.00047203
0.000532967
0.000548983
0.000522837
0.000543719
0.000477589
0.000538697
0.000548525
0.00052265
0.000543738
0.000477916
0.000541333
0.000543073
0.000517075
0.000538217
0.000472455
0.000535698
0.000542824
0.000516828
0.000537966
0.000472225
0.000535445
0.000541104
0.000515104
0.000536218
0.0004706
0.000533695
0.000540965
0.000514966
0.000536076
0.000470471
0.000533551
0.00054029
0.000514295
0.000535388
0.00046984
0.000532864
0.000540226
0.000514231
0.000535322
0.000469781
0.000532798
0.000539963
0.00051397
0.000535053
0.000469535
0.000532529
0.00053994
0.000513946
0.000535029
0.000469513
0.000532505
0.000539871
0.000513878
0.000534958
0.000469448
0.000532434
0.000539871
0.000513878
0.000534958
0.000469448
0.000532434
0.00053994
0.000513946
0.000535029
0.000469513
0.000532505
0.000539963
0.00051397
0.000535053
0.000469535
0.000532529
0.000540226
0.000514231
0.000535322
0.000469781
0.000532798
0.00054029
0.000514295
0.000535388
0.00046984
0.000532864
0.000540965
0.000514966
0.000536076
0.000470471
0.000533551
0.000541104
0.000515104
0.000536218
0.0004706
0.000533695
0.000542824
0.000516828
0.000537966
0.000472225
0.000535445
0.000543073
0.000517075
0.000538217
0.000472455
0.000535698
0.000548525
0.00052265
0.000543738
0.000477916
0.000541333
0.00054813
0.000522551
0.000543816
0.00047843
0.000543102
0.000542776
0.00051708
0.000538398
0.000473069
0.00053755
0.000542531
0.000516836
0.000538149
0.000472842
0.000537299
0.000540812
0.000515114
0.000536404
0.000471216
0.000535544
0.000540673
0.000514976
0.000536262
0.000471087
0.000535401
0.000539997
0.000514304
0.000535573
0.000470456
0.000534711
0.000539934
0.000514241
0.000535508
0.000470396
0.000534644
0.00053967
0.000513979
0.000535239
0.00047015
0.000534374
0.000539646
0.000513956
0.000535214
0.000470127
0.000534349
0.000539577
0.000513887
0.000535144
0.000470063
0.000534279
0.000539577
0.000513887
0.000535144
0.000470063
0.000534279
0.000539646
0.000513956
0.000535214
0.000470127
0.000534349
0.00053967
0.000513979
0.000535239
0.00047015
0.000534374
0.000539934
0.000514241
0.000535508
0.000470396
0.000534644
0.000539997
0.000514304
0.000535573
0.000470456
0.000534711
0.000540673
0.000514976
0.000536262
0.000471087
0.000535401
0.000540812
0.000515114
0.000536404
0.000471216
0.000535544
0.000542531
0.000516836
0.000538149
0.000472842
0.000537299
0.000542776
0.00051708
0.000538398
0.000473069
0.00053755
0.00054813
0.000522551
0.000543816
0.00047843
0.000543102
0.000547615
0.000522328
0.000543757
0.000478834
0.000541705
0.000542359
0.00051696
0.000538441
0.000473571
0.000536248
0.000542116
0.000516719
0.000538195
0.000473347
0.000535999
0.000540399
0.000515
0.000536453
0.000471722
0.000534247
0.000540261
0.000514863
0.000536312
0.000471594
0.000534105
0.000539585
0.00051419
0.000535623
0.000470961
0.000533414
0.000539521
0.000514127
0.000535557
0.000470901
0.000533348
0.000539257
0.000513865
0.000535288
0.000470654
0.000533077
0.000539233
0.000513842
0.000535263
0.000470632
0.000533052
0.000539164
0.000513773
0.000535192
0.000470567
0.000532981
0.000539164
0.000513773
0.000535192
0.000470567
0.000532981
0.000539233
0.000513842
0.000535263
0.000470632
0.000533052
0.000539257
0.000513865
0.000535288
0.000470654
0.000533077
0.000539521
0.000514127
0.000535557
0.000470901
0.000533348
0.000539585
0.00051419
0.000535623
0.000470961
0.000533414
0.000540261
0.000514863
0.000536312
0.000471594
0.000534105
0.000540399
0.000515
0.000536453
0.000471722
0.000534247
0.000542116
0.000516719
0.000538195
0.000473347
0.000535999
0.000542359
0.00051696
0.000538441
0.000473571
0.000536248
0.000547615
0.000522328
0.000543757
0.000478834
0.000541705
0.000547065
0.000522057
0.000543644
0.000479103
0.000539408
0.000541903
0.000516788
0.000538426
0.000473938
0.000534048
0.000541663
0.00051655
0.000538183
0.000473716
0.000533803
0.000539948
0.000514833
0.000536444
0.000472093
0.000532056
0.000539811
0.000514698
0.000536304
0.000471965
0.000531915
0.000539134
0.000514024
0.000535614
0.000471331
0.000531224
0.00053907
0.000513962
0.000535549
0.000471272
0.000531158
0.000538806
0.000513699
0.000535279
0.000471024
0.000530887
0.000538782
0.000513676
0.000535254
0.000471002
0.000530862
0.000538713
0.000513607
0.000535183
0.000470937
0.000530791
0.000538713
0.000513607
0.000535183
0.000470937
0.000530791
0.000538782
0.000513676
0.000535254
0.000471002
0.000530862
0.000538806
0.000513699
0.000535279
0.000471024
0.000530887
0.00053907
0.000513962
0.000535549
0.000471272
0.000531158
0.000539134
0.000514024
0.000535614
0.000471331
0.000531224
0.000539811
0.000514698
0.000536304
0.000471965
0.000531915
0.000539948
0.000514833
0.000536444
0.000472093
0.000532056
0.000541663
0.00051655
0.000538183
0.000473716
0.000533803
0.000541903
0.000516788
0.000538426
0.000473938
0.000534048
0.000547065
0.000522057
0.000543644
0.000479103
0.000539408
0.000546541
0.000521799
0.000543538
0.000479287
0.00053738
0.00054147
0.000516627
0.000538417
0.000474217
0.000532115
0.000541232
0.000516392
0.000538177
0.000473997
0.000531873
0.00053952
0.000514678
0.000536441
0.000472376
0.000530131
0.000539384
0.000514543
0.000536302
0.000472249
0.00052999
0.000538706
0.00051387
0.000535611
0.000471614
0.000529299
0.000538643
0.000513808
0.000535546
0.000471555
0.000529234
0.000538377
0.000513544
0.000535276
0.000471306
0.000528963
0.000538354
0.000513521
0.000535251
0.000471284
0.000528938
0.000538284
0.000513452
0.00053518
0.000471219
0.000528867
0.000538284
0.000513452
0.00053518
0.000471219
0.000528867
0.000538354
0.000513521
0.000535251
0.000471284
0.000528938
0.000538377
0.000513544
0.000535276
0.000471306
0.000528963
0.000538643
0.000513808
0.000535546
0.000471555
0.000529234
0.000538706
0.00051387
0.000535611
0.000471614
0.000529299
0.000539384
0.000514543
0.000536302
0.000472249
0.00052999
0.00053952
0.000514678
0.000536441
0.000472376
0.000530131
0.000541232
0.000516392
0.000538177
0.000473997
0.000531873
0.00054147
0.000516627
0.000538417
0.000474217
0.000532115
0.000546541
0.000521799
0.000543538
0.000479287
0.00053738
0.000546047
0.000521564
0.00054345
0.000479405
0.000535622
0.000541066
0.000516487
0.000538423
0.00047443
0.000530448
0.000540831
0.000516254
0.000538186
0.000474213
0.000530209
0.000539121
0.000514544
0.000536453
0.000472594
0.000528472
0.000538986
0.00051441
0.000536314
0.000472468
0.000528333
0.000538307
0.000513736
0.000535623
0.000471832
0.000527642
0.000538244
0.000513674
0.000535559
0.000471773
0.000527577
0.000537979
0.00051341
0.000535288
0.000471524
0.000527305
0.000537955
0.000513387
0.000535263
0.000471502
0.000527281
0.000537885
0.000513318
0.000535192
0.000471436
0.000527209
0.000537885
0.000513318
0.000535192
0.000471436
0.000527209
0.000537955
0.000513387
0.000535263
0.000471502
0.000527281
0.000537979
0.00051341
0.000535288
0.000471524
0.000527305
0.000538244
0.000513674
0.000535559
0.000471773
0.000527577
0.000538307
0.000513736
0.000535623
0.000471832
0.000527642
0.000538986
0.00051441
0.000536314
0.000472468
0.000528333
0.000539121
0.000514544
0.000536453
0.000472594
0.000528472
0.000540831
0.000516254
0.000538186
0.000474213
0.000530209
0.000541066
0.000516487
0.000538423
0.00047443
0.000530448
0.000546047
0.000521564
0.00054345
0.000479405
0.000535622
0.000545576
0.000521342
0.000543371
0.00047946
0.000533928
0.000540681
0.000516358
0.000538436
0.000474577
0.000528844
0.000540449
0.000516128
0.000538202
0.000474362
0.000528608
0.000538743
0.000514421
0.000536472
0.000472746
0.000526876
0.000538608
0.000514288
0.000536335
0.000472621
0.000526738
0.000537929
0.000513614
0.000535643
0.000471984
0.000526047
0.000537866
0.000513552
0.000535579
0.000471926
0.000525982
0.0005376
0.000513288
0.000535307
0.000471676
0.00052571
0.000537577
0.000513265
0.000535283
0.000471655
0.000525686
0.000537507
0.000513195
0.000535212
0.000471589
0.000525614
0.000537507
0.000513195
0.000535212
0.000471589
0.000525614
0.000537577
0.000513265
0.000535283
0.000471655
0.000525686
0.0005376
0.000513288
0.000535307
0.000471676
0.00052571
0.000537866
0.000513552
0.000535579
0.000471926
0.000525982
0.000537929
0.000513614
0.000535643
0.000471984
0.000526047
0.000538608
0.000514288
0.000536335
0.000472621
0.000526738
0.000538743
0.000514421
0.000536472
0.000472746
0.000526876
0.000540449
0.000516128
0.000538202
0.000474362
0.000528608
0.000540681
0.000516358
0.000538436
0.000474577
0.000528844
0.000545576
0.000521342
0.000543371
0.00047946
0.000533928
0.000545121
0.000521131
0.000543299
0.000479448
0.000532228
0.000540313
0.000516237
0.000538454
0.000474656
0.000527232
0.000540083
0.000516009
0.000538222
0.000474444
0.000526998
0.00053838
0.000514307
0.000536497
0.000472831
0.000525272
0.000538246
0.000514175
0.00053636
0.000472707
0.000525135
0.000537566
0.0005135
0.000535669
0.00047207
0.000524444
0.000537504
0.000513438
0.000535605
0.000472012
0.000524379
0.000537237
0.000513174
0.000535332
0.000471762
0.000524107
0.000537214
0.000513151
0.000535309
0.00047174
0.000524083
0.000537144
0.000513081
0.000535237
0.000471674
0.000524011
0.000537144
0.000513081
0.000535237
0.000471674
0.000524011
0.000537214
0.000513151
0.000535309
0.00047174
0.000524083
0.000537237
0.000513174
0.000535332
0.000471762
0.000524107
0.000537504
0.000513438
0.000535605
0.000472012
0.000524379
0.000537566
0.0005135
0.000535669
0.00047207
0.000524444
0.000538246
0.000514175
0.00053636
0.000472707
0.000525135
0.00053838
0.000514307
0.000536497
0.000472831
0.000525272
0.000540083
0.000516009
0.000538222
0.000474444
0.000526998
0.000540313
0.000516237
0.000538454
0.000474656
0.000527232
0.000545121
0.000521131
0.000543299
0.000479448
0.000532228
0.000544684
0.000520929
0.000543235
0.00047937
0.000530535
0.000539959
0.000516123
0.000538478
0.000474668
0.000525623
0.000539731
0.000515898
0.000538249
0.000474457
0.000525392
0.000538033
0.0005142
0.000536528
0.000472849
0.000523672
0.0005379
0.000514069
0.000536392
0.000472725
0.000523536
0.00053722
0.000513394
0.0005357
0.000472088
0.000522845
0.000537158
0.000513333
0.000535636
0.00047203
0.000522781
0.00053689
0.000513068
0.000535364
0.00047178
0.000522509
0.000536867
0.000513045
0.00053534
0.000471758
0.000522485
0.000536797
0.000512975
0.000535268
0.000471692
0.000522413
0.000536797
0.000512975
0.000535268
0.000471692
0.000522413
0.000536867
0.000513045
0.00053534
0.000471758
0.000522485
0.00053689
0.000513068
0.000535364
0.00047178
0.000522509
0.000537158
0.000513333
0.000535636
0.00047203
0.000522781
0.00053722
0.000513394
0.0005357
0.000472088
0.000522845
0.0005379
0.000514069
0.000536392
0.000472725
0.000523536
0.000538033
0.0005142
0.000536528
0.000472849
0.000523672
0.000539731
0.000515898
0.000538249
0.000474457
0.000525392
0.000539959
0.000516123
0.000538478
0.000474668
0.000525623
0.000544684
0.000520929
0.000543235
0.00047937
0.000530535
0.000544264
0.000520737
0.00054318
0.000479226
0.000528861
0.000539621
0.000516018
0.00053851
0.000474612
0.000524032
0.000539396
0.000515795
0.000538283
0.000474404
0.000523804
0.000537701
0.000514102
0.000536566
0.000472801
0.00052209
0.000537569
0.000513971
0.000536432
0.000472678
0.000521955
0.000536889
0.000513296
0.000535739
0.00047204
0.000521265
0.000536827
0.000513236
0.000535676
0.000471983
0.000521201
0.000536559
0.00051297
0.000535403
0.000471732
0.000520928
0.000536536
0.000512948
0.000535379
0.000471711
0.000520904
0.000536466
0.000512878
0.000535307
0.000471645
0.000520832
0.000536466
0.000512878
0.000535307
0.000471645
0.000520832
0.000536536
0.000512948
0.000535379
0.000471711
0.000520904
0.000536559
0.00051297
0.000535403
0.000471732
0.000520928
0.000536827
0.000513236
0.000535676
0.000471983
0.000521201
0.000536889
0.000513296
0.000535739
0.00047204
0.000521265
0.000537569
0.000513971
0.000536432
0.000472678
0.000521955
0.000537701
0.000514102
0.000536566
0.000472801
0.00052209
0.000539396
0.000515795
0.000538283
0.000474404
0.000523804
0.000539621
0.000516018
0.00053851
0.000474612
0.000524032
0.000544264
0.000520737
0.00054318
0.000479226
0.000528861
0.000543861
0.000520556
0.000543136
0.000479017
0.000527136
0.000539298
0.000515921
0.00053855
0.00047449
0.000522388
0.000539076
0.000515701
0.000538326
0.000474285
0.000522163
0.000537386
0.000514013
0.000536615
0.000472686
0.000520457
0.000537254
0.000513883
0.000536481
0.000472564
0.000520322
0.000536574
0.000513208
0.000535788
0.000471927
0.000519632
0.000536513
0.000513148
0.000535725
0.00047187
0.000519569
0.000536244
0.000512882
0.000535452
0.000471619
0.000519296
0.000536221
0.000512859
0.000535428
0.000471598
0.000519272
0.000536151
0.000512789
0.000535356
0.000471532
0.0005192
0.000536151
0.000512789
0.000535356
0.000471532
0.0005192
0.000536221
0.000512859
0.000535428
0.000471598
0.000519272
0.000536244
0.000512882
0.000535452
0.000471619
0.000519296
0.000536513
0.000513148
0.000535725
0.00047187
0.000519569
0.000536574
0.000513208
0.000535788
0.000471927
0.000519632
0.000537254
0.000513883
0.000536481
0.000472564
0.000520322
0.000537386
0.000514013
0.000536615
0.000472686
0.000520457
0.000539076
0.000515701
0.000538326
0.000474285
0.000522163
0.000539298
0.000515921
0.00053855
0.00047449
0.000522388
0.000543861
0.000520556
0.000543136
0.000479017
0.000527136
-1.7154e-05
1.66671e-05
3.32742e-06
7.93441e-07
2.75941e-07
1.85602e-07
1.66589e-07
1.62783e-07
1.61886e-07
1.61681e-07
1.6162e-07
1.61595e-07
1.61496e-07
1.61386e-07
1.6052e-07
1.59852e-07
1.53416e-07
1.50645e-07
1.11916e-07
1.07812e-07
-1.72626e-05
1.66441e-05
3.35689e-06
8.02356e-07
2.78104e-07
1.86117e-07
1.66696e-07
1.62795e-07
1.61873e-07
1.61662e-07
1.61599e-07
1.61573e-07
1.61472e-07
1.6136e-07
1.60479e-07
1.59804e-07
1.53296e-07
1.50519e-07
1.11617e-07
1.076e-07
-1.726e-05
1.66373e-05
3.35517e-06
8.02198e-07
2.78094e-07
1.86121e-07
1.66698e-07
1.62796e-07
1.61873e-07
1.61662e-07
1.61599e-07
1.61572e-07
1.61472e-07
1.61359e-07
1.60478e-07
1.59803e-07
1.53294e-07
1.50517e-07
1.11613e-07
1.07598e-07
-1.72456e-05
1.65949e-05
3.34367e-06
8.00871e-07
2.77933e-07
1.8612e-07
1.66701e-07
1.62797e-07
1.61872e-07
1.61661e-07
1.61598e-07
1.61571e-07
1.6147e-07
1.61358e-07
1.60475e-07
1.59799e-07
1.53287e-07
1.5051e-07
1.11602e-07
1.07592e-07
-1.72436e-05
1.65907e-05
3.3423e-06
8.00664e-07
2.77895e-07
1.86114e-07
1.667e-07
1.62797e-07
1.61872e-07
1.61661e-07
1.61598e-07
1.61571e-07
1.6147e-07
1.61358e-07
1.60475e-07
1.59799e-07
1.53287e-07
1.5051e-07
1.11601e-07
1.07592e-07
-1.72363e-05
1.65736e-05
3.33701e-06
7.99904e-07
2.77756e-07
1.86094e-07
1.66696e-07
1.62796e-07
1.61872e-07
1.61661e-07
1.61598e-07
1.61571e-07
1.6147e-07
1.61358e-07
1.60475e-07
1.59799e-07
1.53286e-07
1.50509e-07
1.11601e-07
1.07591e-07
-1.72354e-05
1.65717e-05
3.33641e-06
7.9981e-07
2.77738e-07
1.86091e-07
1.66696e-07
1.62796e-07
1.61872e-07
1.61661e-07
1.61598e-07
1.61571e-07
1.6147e-07
1.61358e-07
1.60475e-07
1.59799e-07
1.53286e-07
1.50509e-07
1.11601e-07
1.07591e-07
-1.72328e-05
1.65653e-05
3.33449e-06
7.99535e-07
2.77686e-07
1.86084e-07
1.66694e-07
1.62796e-07
1.61872e-07
1.61661e-07
1.61598e-07
1.61571e-07
1.6147e-07
1.61358e-07
1.60475e-07
1.59799e-07
1.53286e-07
1.50509e-07
1.11601e-07
1.07591e-07
-1.72325e-05
1.65646e-05
3.33429e-06
7.99503e-07
2.7768e-07
1.86083e-07
1.66694e-07
1.62796e-07
1.61872e-07
1.61661e-07
1.61598e-07
1.61571e-07
1.6147e-07
1.61358e-07
1.60475e-07
1.59799e-07
1.53286e-07
1.50509e-07
1.11601e-07
1.07591e-07
-1.72319e-05
1.6563e-05
3.33382e-06
7.99436e-07
2.77668e-07
1.86081e-07
1.66694e-07
1.62796e-07
1.61872e-07
1.61661e-07
1.61598e-07
1.61571e-07
1.6147e-07
1.61358e-07
1.60475e-07
1.59799e-07
1.53286e-07
1.50509e-07
1.11601e-07
1.07591e-07
-1.72319e-05
1.6563e-05
3.33382e-06
7.99436e-07
2.77668e-07
1.86081e-07
1.66694e-07
1.62796e-07
1.61872e-07
1.61661e-07
1.61598e-07
1.61571e-07
1.6147e-07
1.61358e-07
1.60475e-07
1.59799e-07
1.53286e-07
1.50509e-07
1.11601e-07
1.07591e-07
-1.72325e-05
1.65646e-05
3.33429e-06
7.99503e-07
2.7768e-07
1.86083e-07
1.66694e-07
1.62796e-07
1.61872e-07
1.61661e-07
1.61598e-07
1.61571e-07
1.6147e-07
1.61358e-07
1.60475e-07
1.59799e-07
1.53286e-07
1.50509e-07
1.11601e-07
1.07591e-07
-1.72328e-05
1.65653e-05
3.33449e-06
7.99535e-07
2.77686e-07
1.86084e-07
1.66694e-07
1.62796e-07
1.61872e-07
1.61661e-07
1.61598e-07
1.61571e-07
1.6147e-07
1.61358e-07
1.60475e-07
1.59799e-07
1.53286e-07
1.50509e-07
1.11601e-07
1.07591e-07
-1.72354e-05
1.65717e-05
3.33641e-06
7.9981e-07
2.77738e-07
1.86091e-07
1.66696e-07
1.62796e-07
1.61872e-07
1.61661e-07
1.61598e-07
1.61571e-07
1.6147e-07
1.61358e-07
1.60475e-07
1.59799e-07
1.53286e-07
1.50509e-07
1.11601e-07
1.07591e-07
-1.72363e-05
1.65736e-05
3.33701e-06
7.99904e-07
2.77756e-07
1.86094e-07
1.66696e-07
1.62796e-07
1.61872e-07
1.61661e-07
1.61598e-07
1.61571e-07
1.6147e-07
1.61358e-07
1.60475e-07
1.59799e-07
1.53286e-07
1.50509e-07
1.11601e-07
1.07591e-07
-1.72436e-05
1.65907e-05
3.3423e-06
8.00664e-07
2.77895e-07
1.86114e-07
1.667e-07
1.62797e-07
1.61872e-07
1.61661e-07
1.61598e-07
1.61571e-07
1.6147e-07
1.61358e-07
1.60475e-07
1.59799e-07
1.53287e-07
1.5051e-07
1.11601e-07
1.07592e-07
-1.72456e-05
1.65949e-05
3.34367e-06
8.00871e-07
2.77933e-07
1.8612e-07
1.66701e-07
1.62797e-07
1.61872e-07
1.61661e-07
1.61598e-07
1.61571e-07
1.6147e-07
1.61358e-07
1.60475e-07
1.59799e-07
1.53287e-07
1.5051e-07
1.11602e-07
1.07592e-07
-1.726e-05
1.66373e-05
3.35517e-06
8.02198e-07
2.78094e-07
1.86121e-07
1.66698e-07
1.62796e-07
1.61873e-07
1.61662e-07
1.61599e-07
1.61572e-07
1.61472e-07
1.61359e-07
1.60478e-07
1.59803e-07
1.53294e-07
1.50517e-07
1.11613e-07
1.07598e-07
-1.72626e-05
1.66441e-05
3.35689e-06
8.02356e-07
2.78104e-07
1.86117e-07
1.66696e-07
1.62795e-07
1.61873e-07
1.61662e-07
1.61599e-07
1.61573e-07
1.61472e-07
1.6136e-07
1.60479e-07
1.59804e-07
1.53296e-07
1.50519e-07
1.11617e-07
1.076e-07
-1.7154e-05
1.66671e-05
3.32742e-06
7.93441e-07
2.75941e-07
1.85602e-07
1.66589e-07
1.62783e-07
1.61886e-07
1.61681e-07
1.6162e-07
1.61595e-07
1.61496e-07
1.61386e-07
1.6052e-07
1.59852e-07
1.53416e-07
1.50645e-07
1.11916e-07
1.07812e-07
-1.67861e-05
1.68477e-05
3.3579e-06
7.99824e-07
2.77165e-07
1.85867e-07
1.66642e-07
1.62857e-07
1.61978e-07
1.6177e-07
1.61709e-07
1.61682e-07
1.61582e-07
1.61471e-07
1.60564e-07
1.59834e-07
1.53334e-07
1.50538e-07
1.11322e-07
1.07189e-07
-1.68886e-05
1.68248e-05
3.38768e-06
8.08836e-07
2.79354e-07
1.86387e-07
1.66751e-07
1.62867e-07
1.61965e-07
1.61751e-07
1.61688e-07
1.6166e-07
1.61558e-07
1.61445e-07
1.60522e-07
1.59784e-07
1.53213e-07
1.5041e-07
1.11018e-07
1.06972e-07
-1.68857e-05
1.6818e-05
3.38595e-06
8.08676e-07
2.79344e-07
1.86392e-07
1.66753e-07
1.62868e-07
1.61965e-07
1.61751e-07
1.61687e-07
1.6166e-07
1.61558e-07
1.61444e-07
1.60521e-07
1.59783e-07
1.53211e-07
1.50408e-07
1.11014e-07
1.0697e-07
-1.68702e-05
1.67752e-05
3.37434e-06
8.07338e-07
2.79181e-07
1.8639e-07
1.66756e-07
1.62869e-07