/*--------------------------------*- C++ -*----------------------------------*\
  =========                 |
  \\      /  F ield         | OpenFOAM: The Open Source CFD Toolbox
   \\    /   O peration     | Website:  https://openfoam.org
    \\  /    A nd           | Version:  8
     \\/     M anipulation  |
\*---------------------------------------------------------------------------*/
FoamFile
{
    version     2.0;
    format      ascii;
    class       volScalarField;
    location    "0.4";
    object      p;
}
// * * * * * * * * * * * * * * * * * * * * * * * * * * * * * * * * * * * * * //

dimensions      [0 2 -2 0 0 0 0];

internalField   nonuniform List<scalar> 
180000
(
0.00159685
0.00152421
0.00158507
0.00131096
0.00149304
0.00159159
0.00151782
0.00157957
0.00130397
0.00148676
0.00159155
0.00151777
0.00157953
0.00130392
0.00148672
0.00159138
0.00151757
0.00157939
0.00130371
0.00148662
0.00159139
0.00151758
0.0015794
0.00130372
0.00148663
0.0015914
0.00151759
0.00157942
0.00130373
0.00148665
0.00159141
0.0015176
0.00157943
0.00130374
0.00148666
0.00159143
0.00151762
0.00157944
0.00130376
0.00148668
0.00159143
0.00151762
0.00157945
0.00130376
0.00148669
0.00159144
0.00151763
0.00157945
0.00130377
0.00148669
0.00159144
0.00151763
0.00157945
0.00130377
0.00148669
0.00159143
0.00151762
0.00157945
0.00130376
0.00148669
0.00159143
0.00151762
0.00157944
0.00130376
0.00148668
0.00159141
0.0015176
0.00157943
0.00130374
0.00148666
0.0015914
0.00151759
0.00157942
0.00130373
0.00148665
0.00159139
0.00151758
0.0015794
0.00130372
0.00148663
0.00159138
0.00151757
0.00157939
0.00130371
0.00148662
0.00159155
0.00151777
0.00157953
0.00130392
0.00148672
0.00159159
0.00151782
0.00157957
0.00130397
0.00148676
0.00159685
0.00152421
0.00158507
0.00131096
0.00149304
0.000714445
0.000756519
0.000722487
0.000812306
0.000772029
0.000717908
0.000759513
0.000725939
0.000812628
0.000774513
0.000717933
0.000759538
0.000725963
0.000812632
0.000774529
0.000718045
0.00075963
0.000726053
0.000812636
0.000774568
0.000718038
0.000759625
0.000726045
0.000812635
0.000774562
0.000718028
0.000759618
0.000726033
0.000812634
0.000774552
0.000718021
0.000759612
0.000726025
0.000812634
0.000774548
0.000718012
0.000759606
0.000726016
0.000812633
0.000774542
0.000718008
0.000759603
0.000726012
0.000812633
0.000774539
0.000718005
0.000759601
0.000726009
0.000812633
0.000774538
0.000718005
0.000759601
0.000726009
0.000812633
0.000774538
0.000718008
0.000759603
0.000726012
0.000812633
0.000774539
0.000718012
0.000759606
0.000726016
0.000812633
0.000774542
0.000718021
0.000759612
0.000726025
0.000812634
0.000774548
0.000718028
0.000759618
0.000726033
0.000812634
0.000774552
0.000718038
0.000759625
0.000726045
0.000812635
0.000774562
0.000718045
0.00075963
0.000726053
0.000812636
0.000774568
0.000717933
0.000759538
0.000725963
0.000812632
0.000774529
0.000717908
0.000759513
0.000725939
0.000812628
0.000774513
0.000714445
0.000756519
0.000722487
0.000812306
0.000772029
0.000666967
0.000648146
0.000664294
0.000616445
0.000646992
0.000665444
0.000646766
0.000662777
0.000615654
0.000645801
0.000665435
0.000646757
0.000662769
0.00061565
0.000645796
0.000665385
0.00064671
0.000662728
0.000615619
0.000645772
0.000665387
0.000646712
0.000662731
0.00061562
0.000645775
0.000665391
0.000646715
0.000662736
0.000615621
0.000645779
0.000665394
0.000646717
0.000662739
0.000615622
0.000645781
0.000665398
0.00064672
0.000662743
0.000615624
0.000645784
0.0006654
0.000646722
0.000662745
0.000615624
0.000645786
0.000665401
0.000646723
0.000662746
0.000615625
0.000645786
0.000665401
0.000646723
0.000662746
0.000615625
0.000645786
0.0006654
0.000646722
0.000662745
0.000615624
0.000645786
0.000665398
0.00064672
0.000662743
0.000615624
0.000645784
0.000665394
0.000646717
0.000662739
0.000615622
0.000645781
0.000665391
0.000646715
0.000662736
0.000615621
0.000645779
0.000665387
0.000646712
0.000662731
0.00061562
0.000645775
0.000665385
0.00064671
0.000662728
0.000615619
0.000645772
0.000665435
0.000646757
0.000662769
0.00061565
0.000645796
0.000665444
0.000646766
0.000662777
0.000615654
0.000645801
0.000666967
0.000648146
0.000664294
0.000616445
0.000646992
0.000732634
0.00071211
0.000730501
0.000645619
0.000710167
0.000731266
0.000710308
0.000729059
0.000643387
0.000708407
0.000731257
0.000710295
0.000729051
0.00064337
0.000708397
0.000731208
0.00071023
0.000729008
0.000643294
0.00070836
0.000731211
0.000710233
0.000729011
0.000643297
0.000708364
0.000731215
0.000710236
0.000729016
0.000643301
0.000708371
0.000731217
0.00071024
0.000729019
0.000643304
0.000708375
0.000731221
0.000710244
0.000729023
0.000643308
0.000708379
0.000731223
0.000710246
0.000729025
0.00064331
0.000708381
0.000731224
0.000710247
0.000729026
0.000643312
0.000708383
0.000731224
0.000710247
0.000729026
0.000643312
0.000708383
0.000731223
0.000710246
0.000729025
0.00064331
0.000708381
0.000731221
0.000710244
0.000729023
0.000643308
0.000708379
0.000731217
0.00071024
0.000729019
0.000643304
0.000708375
0.000731215
0.000710236
0.000729016
0.000643301
0.000708371
0.000731211
0.000710233
0.000729011
0.000643297
0.000708364
0.000731208
0.00071023
0.000729008
0.000643294
0.00070836
0.000731257
0.000710295
0.000729051
0.00064337
0.000708397
0.000731266
0.000710308
0.000729059
0.000643387
0.000708407
0.000732634
0.00071211
0.000730501
0.000645619
0.000710167
0.000748521
0.000735019
0.000748025
0.000676818
0.000737437
0.000747775
0.000733749
0.000747204
0.00067465
0.000736148
0.00074777
0.00073374
0.0007472
0.000674633
0.000736141
0.000747739
0.000733688
0.000747171
0.000674555
0.000736109
0.00074774
0.00073369
0.000747173
0.000674557
0.000736112
0.000747742
0.000733693
0.000747176
0.000674561
0.000736117
0.000747744
0.000733695
0.000747178
0.000674564
0.00073612
0.000747746
0.000733699
0.00074718
0.000674569
0.000736124
0.000747747
0.0007337
0.000747181
0.000674571
0.000736125
0.000747748
0.000733701
0.000747182
0.000674572
0.000736127
0.000747748
0.000733701
0.000747182
0.000674572
0.000736127
0.000747747
0.0007337
0.000747181
0.000674571
0.000736125
0.000747746
0.000733699
0.00074718
0.000674569
0.000736124
0.000747744
0.000733695
0.000747178
0.000674564
0.00073612
0.000747742
0.000733693
0.000747176
0.000674561
0.000736117
0.00074774
0.00073369
0.000747173
0.000674557
0.000736112
0.000747739
0.000733688
0.000747171
0.000674555
0.000736109
0.00074777
0.00073374
0.0007472
0.000674633
0.000736141
0.000747775
0.000733749
0.000747204
0.00067465
0.000736148
0.000748521
0.000735019
0.000748025
0.000676818
0.000737437
0.000741229
0.00072953
0.00074129
0.000680264
0.000736272
0.000740605
0.000728493
0.000740614
0.000678404
0.000735265
0.000740601
0.000728485
0.00074061
0.000678389
0.000735259
0.000740572
0.000728438
0.000740583
0.000678316
0.00073523
0.000740573
0.00072844
0.000740585
0.000678319
0.000735233
0.000740575
0.000728442
0.000740587
0.000678322
0.000735237
0.000740577
0.000728444
0.000740589
0.000678325
0.000735239
0.000740579
0.000728447
0.000740592
0.000678329
0.000735243
0.00074058
0.000728448
0.000740592
0.000678331
0.000735244
0.000740581
0.00072845
0.000740593
0.000678332
0.000735245
0.000740581
0.00072845
0.000740593
0.000678332
0.000735245
0.00074058
0.000728448
0.000740592
0.000678331
0.000735244
0.000740579
0.000728447
0.000740592
0.000678329
0.000735243
0.000740577
0.000728444
0.000740589
0.000678325
0.000735239
0.000740575
0.000728442
0.000740587
0.000678322
0.000735237
0.000740573
0.00072844
0.000740585
0.000678319
0.000735233
0.000740572
0.000728438
0.000740583
0.000678316
0.00073523
0.000740601
0.000728485
0.00074061
0.000678389
0.000735259
0.000740605
0.000728493
0.000740614
0.000678404
0.000735265
0.000741229
0.00072953
0.00074129
0.000680264
0.000736272
0.000735312
0.000722785
0.000735525
0.000675084
0.000733168
0.000734633
0.000721739
0.000734801
0.000673344
0.000732206
0.000734628
0.000721731
0.000734797
0.00067333
0.000732201
0.000734596
0.000721681
0.000734767
0.000673258
0.000732171
0.000734597
0.000721683
0.000734769
0.00067326
0.000732173
0.000734599
0.000721685
0.000734772
0.000673264
0.000732178
0.000734601
0.000721687
0.000734774
0.000673267
0.00073218
0.000734603
0.000721691
0.000734777
0.000673271
0.000732183
0.000734604
0.000721692
0.000734778
0.000673272
0.000732185
0.000734605
0.000721693
0.000734779
0.000673274
0.000732186
0.000734605
0.000721693
0.000734779
0.000673274
0.000732186
0.000734604
0.000721692
0.000734778
0.000673272
0.000732185
0.000734603
0.000721691
0.000734777
0.000673271
0.000732183
0.000734601
0.000721687
0.000734774
0.000673267
0.00073218
0.000734599
0.000721685
0.000734772
0.000673264
0.000732178
0.000734597
0.000721683
0.000734769
0.00067326
0.000732173
0.000734596
0.000721681
0.000734767
0.000673258
0.000732171
0.000734628
0.000721731
0.000734797
0.00067333
0.000732201
0.000734633
0.000721739
0.000734801
0.000673344
0.000732206
0.000735312
0.000722785
0.000735525
0.000675084
0.000733168
0.000733106
0.000719912
0.00073353
0.000671887
0.000733683
0.000732401
0.000718845
0.000732784
0.000670175
0.000732737
0.000732397
0.000718837
0.000732779
0.000670161
0.000732731
0.000732361
0.000718784
0.000732748
0.000670088
0.0007327
0.000732363
0.000718786
0.000732749
0.00067009
0.000732702
0.000732365
0.000718788
0.000732753
0.000670093
0.000732707
0.000732367
0.00071879
0.000732755
0.000670096
0.000732709
0.000732369
0.000718794
0.000732758
0.0006701
0.000732713
0.000732371
0.000718795
0.000732759
0.000670102
0.000732714
0.000732371
0.000718796
0.00073276
0.000670103
0.000732715
0.000732371
0.000718796
0.00073276
0.000670103
0.000732715
0.000732371
0.000718795
0.000732759
0.000670102
0.000732714
0.000732369
0.000718794
0.000732758
0.0006701
0.000732713
0.000732367
0.00071879
0.000732755
0.000670096
0.000732709
0.000732365
0.000718788
0.000732753
0.000670093
0.000732707
0.000732363
0.000718786
0.000732749
0.00067009
0.000732702
0.000732361
0.000718784
0.000732748
0.000670088
0.0007327
0.000732397
0.000718837
0.000732779
0.000670161
0.000732731
0.000732401
0.000718845
0.000732784
0.000670175
0.000732737
0.000733106
0.000719912
0.00073353
0.000671887
0.000733683
0.000731783
0.000718422
0.000732503
0.000670863
0.000735453
0.000731091
0.000717372
0.000731773
0.000669181
0.000734547
0.000731086
0.000717364
0.000731769
0.000669168
0.000734542
0.00073105
0.00071731
0.000731736
0.000669093
0.000734509
0.000731051
0.000717311
0.000731738
0.000669095
0.000734511
0.000731053
0.000717314
0.000731741
0.000669098
0.000734516
0.000731055
0.000717316
0.000731743
0.000669101
0.000734519
0.000731058
0.00071732
0.000731746
0.000669106
0.000734522
0.000731059
0.000717321
0.000731747
0.000669107
0.000734524
0.00073106
0.000717322
0.000731748
0.000669109
0.000734525
0.00073106
0.000717322
0.000731748
0.000669109
0.000734525
0.000731059
0.000717321
0.000731747
0.000669107
0.000734524
0.000731058
0.00071732
0.000731746
0.000669106
0.000734522
0.000731055
0.000717316
0.000731743
0.000669101
0.000734519
0.000731053
0.000717314
0.000731741
0.000669098
0.000734516
0.000731051
0.000717311
0.000731738
0.000669095
0.000734511
0.00073105
0.00071731
0.000731736
0.000669093
0.000734509
0.000731086
0.000717364
0.000731769
0.000669168
0.000734542
0.000731091
0.000717372
0.000731773
0.000669181
0.000734547
0.000731783
0.000718422
0.000732503
0.000670863
0.000735453
0.000730145
0.000716744
0.000731172
0.00067032
0.000736959
0.000729473
0.000715724
0.000730467
0.000668685
0.000736093
0.000729468
0.000715715
0.000730463
0.000668672
0.000736088
0.00072943
0.00071566
0.000730429
0.000668596
0.000736055
0.000729432
0.000715662
0.000730431
0.000668598
0.000736057
0.000729434
0.000715664
0.000730434
0.000668602
0.000736062
0.000729436
0.000715667
0.000730436
0.000668605
0.000736064
0.000729439
0.00071567
0.000730439
0.000668609
0.000736068
0.00072944
0.000715672
0.00073044
0.000668611
0.000736069
0.000729441
0.000715673
0.000730442
0.000668612
0.000736071
0.000729441
0.000715673
0.000730442
0.000668612
0.000736071
0.00072944
0.000715672
0.00073044
0.000668611
0.000736069
0.000729439
0.00071567
0.000730439
0.000668609
0.000736068
0.000729436
0.000715667
0.000730436
0.000668605
0.000736064
0.000729434
0.000715664
0.000730434
0.000668602
0.000736062
0.000729432
0.000715662
0.000730431
0.000668598
0.000736057
0.00072943
0.00071566
0.000730429
0.000668596
0.000736055
0.000729468
0.000715715
0.000730463
0.000668672
0.000736088
0.000729473
0.000715724
0.000730467
0.000668685
0.000736093
0.000730145
0.000716744
0.000731172
0.00067032
0.000736959
0.000728281
0.000714802
0.000729602
0.00066965
0.000738199
0.000727624
0.000713808
0.000728915
0.000668065
0.000737355
0.000727619
0.0007138
0.000728911
0.000668052
0.00073735
0.000727581
0.000713744
0.000728877
0.000667976
0.000737315
0.000727582
0.000713745
0.000728878
0.000667978
0.000737318
0.000727584
0.000713748
0.000728882
0.000667981
0.000737322
0.000727586
0.00071375
0.000728884
0.000667985
0.000737325
0.000727589
0.000713754
0.000728887
0.000667989
0.000737329
0.00072759
0.000713755
0.000728888
0.000667991
0.00073733
0.000727591
0.000713756
0.00072889
0.000667992
0.000737332
0.000727591
0.000713756
0.00072889
0.000667992
0.000737332
0.00072759
0.000713755
0.000728888
0.000667991
0.00073733
0.000727589
0.000713754
0.000728887
0.000667989
0.000737329
0.000727586
0.00071375
0.000728884
0.000667985
0.000737325
0.000727584
0.000713748
0.000728882
0.000667981
0.000737322
0.000727582
0.000713745
0.000728878
0.000667978
0.000737318
0.000727581
0.000713744
0.000728877
0.000667976
0.000737315
0.000727619
0.0007138
0.000728911
0.000668052
0.00073735
0.000727624
0.000713808
0.000728915
0.000668065
0.000737355
0.000728281
0.000714802
0.000729602
0.00066965
0.000738199
0.000726408
0.000712825
0.000728009
0.000668846
0.000735628
0.000725763
0.000711854
0.000727339
0.000667308
0.000734794
0.000725758
0.000711846
0.000727335
0.000667296
0.000734789
0.000725718
0.000711789
0.0007273
0.00066722
0.000734754
0.00072572
0.000711791
0.000727302
0.000667222
0.000734756
0.000725722
0.000711793
0.000727305
0.000667225
0.000734761
0.000725724
0.000711795
0.000727307
0.000667228
0.000734764
0.000725727
0.000711799
0.000727311
0.000667233
0.000734768
0.000725728
0.0007118
0.000727312
0.000667235
0.000734769
0.00072573
0.000711802
0.000727313
0.000667236
0.000734771
0.00072573
0.000711802
0.000727313
0.000667236
0.000734771
0.000725728
0.0007118
0.000727312
0.000667235
0.000734769
0.000725727
0.000711799
0.000727311
0.000667233
0.000734768
0.000725724
0.000711795
0.000727307
0.000667228
0.000734764
0.000725722
0.000711793
0.000727305
0.000667225
0.000734761
0.00072572
0.000711791
0.000727302
0.000667222
0.000734756
0.000725718
0.000711789
0.0007273
0.00066722
0.000734754
0.000725758
0.000711846
0.000727335
0.000667296
0.000734789
0.000725763
0.000711854
0.000727339
0.000667308
0.000734794
0.000726408
0.000712825
0.000728009
0.000668846
0.000735628
0.000724575
0.000710895
0.00072645
0.000667917
0.000731949
0.000723942
0.000709946
0.000725796
0.000666425
0.000731124
0.000723936
0.000709938
0.000725792
0.000666413
0.000731119
0.000723896
0.00070988
0.000725756
0.000666336
0.000731083
0.000723898
0.000709882
0.000725758
0.000666338
0.000731085
0.0007239
0.000709884
0.000725762
0.000666342
0.00073109
0.000723902
0.000709886
0.000725764
0.000666345
0.000731093
0.000723906
0.00070989
0.000725767
0.00066635
0.000731097
0.000723907
0.000709892
0.000725769
0.000666351
0.000731099
0.000723908
0.000709893
0.00072577
0.000666353
0.0007311
0.000723908
0.000709893
0.00072577
0.000666353
0.0007311
0.000723907
0.000709892
0.000725769
0.000666351
0.000731099
0.000723906
0.00070989
0.000725767
0.00066635
0.000731097
0.000723902
0.000709886
0.000725764
0.000666345
0.000731093
0.0007239
0.000709884
0.000725762
0.000666342
0.00073109
0.000723898
0.000709882
0.000725758
0.000666338
0.000731085
0.000723896
0.00070988
0.000725756
0.000666336
0.000731083
0.000723936
0.000709938
0.000725792
0.000666413
0.000731119
0.000723942
0.000709946
0.000725796
0.000666425
0.000731124
0.000724575
0.000710895
0.00072645
0.000667917
0.000731949
0.000722763
0.000708998
0.000724907
0.000666871
0.000728538
0.000722142
0.000708072
0.000724269
0.000665425
0.000727722
0.000722136
0.000708064
0.000724265
0.000665413
0.000727718
0.000722096
0.000708005
0.000724229
0.000665336
0.000727681
0.000722097
0.000708007
0.00072423
0.000665338
0.000727684
0.000722099
0.000708009
0.000724234
0.000665342
0.000727689
0.000722101
0.000708011
0.000724236
0.000665345
0.000727692
0.000722105
0.000708016
0.00072424
0.00066535
0.000727696
0.000722106
0.000708017
0.000724241
0.000665352
0.000727698
0.000722107
0.000708018
0.000724243
0.000665353
0.000727699
0.000722107
0.000708018
0.000724243
0.000665353
0.000727699
0.000722106
0.000708017
0.000724241
0.000665352
0.000727698
0.000722105
0.000708016
0.00072424
0.00066535
0.000727696
0.000722101
0.000708011
0.000724236
0.000665345
0.000727692
0.000722099
0.000708009
0.000724234
0.000665342
0.000727689
0.000722097
0.000708007
0.00072423
0.000665338
0.000727684
0.000722096
0.000708005
0.000724229
0.000665336
0.000727681
0.000722136
0.000708064
0.000724265
0.000665413
0.000727718
0.000722142
0.000708072
0.000724269
0.000665425
0.000727722
0.000722763
0.000708998
0.000724907
0.000666871
0.000728538
0.000720958
0.000707117
0.000723365
0.000665714
0.000725386
0.000720349
0.000706213
0.000722744
0.000664313
0.000724582
0.000720343
0.000706205
0.00072274
0.000664303
0.000724577
0.000720302
0.000706146
0.000722703
0.000664225
0.000724541
0.000720303
0.000706147
0.000722705
0.000664227
0.000724543
0.000720306
0.00070615
0.000722709
0.000664231
0.000724549
0.000720308
0.000706152
0.000722711
0.000664234
0.000724552
0.000720312
0.000706156
0.000722715
0.000664239
0.000724556
0.000720313
0.000706158
0.000722716
0.000664241
0.000724558
0.000720314
0.000706159
0.000722718
0.000664242
0.000724559
0.000720314
0.000706159
0.000722718
0.000664242
0.000724559
0.000720313
0.000706158
0.000722716
0.000664241
0.000724558
0.000720312
0.000706156
0.000722715
0.000664239
0.000724556
0.000720308
0.000706152
0.000722711
0.000664234
0.000724552
0.000720306
0.00070615
0.000722709
0.000664231
0.000724549
0.000720303
0.000706147
0.000722705
0.000664227
0.000724543
0.000720302
0.000706146
0.000722703
0.000664225
0.000724541
0.000720343
0.000706205
0.00072274
0.000664303
0.000724577
0.000720349
0.000706213
0.000722744
0.000664313
0.000724582
0.000720958
0.000707117
0.000723365
0.000665714
0.000725386
0.000719158
0.000705248
0.000721826
0.00066445
0.00072227
0.000718561
0.000704366
0.000721221
0.000663094
0.000721479
0.000718556
0.000704358
0.000721217
0.000663084
0.000721474
0.000718514
0.000704298
0.00072118
0.000663007
0.000721438
0.000718515
0.0007043
0.000721182
0.000663009
0.000721441
0.000718518
0.000704302
0.000721186
0.000663012
0.000721446
0.00071852
0.000704305
0.000721188
0.000663015
0.000721449
0.000718524
0.000704309
0.000721192
0.00066302
0.000721454
0.000718525
0.000704311
0.000721193
0.000663022
0.000721455
0.000718526
0.000704312
0.000721195
0.000663024
0.000721457
0.000718526
0.000704312
0.000721195
0.000663024
0.000721457
0.000718525
0.000704311
0.000721193
0.000663022
0.000721455
0.000718524
0.000704309
0.000721192
0.00066302
0.000721454
0.00071852
0.000704305
0.000721188
0.000663015
0.000721449
0.000718518
0.000704302
0.000721186
0.000663012
0.000721446
0.000718515
0.0007043
0.000721182
0.000663009
0.000721441
0.000718514
0.000704298
0.00072118
0.000663007
0.000721438
0.000718556
0.000704358
0.000721217
0.000663084
0.000721474
0.000718561
0.000704366
0.000721221
0.000663094
0.000721479
0.000719158
0.000705248
0.000721826
0.00066445
0.00072227
0.000717366
0.000703392
0.00072029
0.000663082
0.000719125
0.000716781
0.000702532
0.000719702
0.00066177
0.000718346
0.000716776
0.000702524
0.000719698
0.00066176
0.000718342
0.000716733
0.000702464
0.000719661
0.000661683
0.000718306
0.000716735
0.000702465
0.000719662
0.000661685
0.000718308
0.000716738
0.000702468
0.000719666
0.000661689
0.000718314
0.00071674
0.00070247
0.000719669
0.000661692
0.000718317
0.000716744
0.000702475
0.000719673
0.000661697
0.000718321
0.000716745
0.000702476
0.000719674
0.000661699
0.000718323
0.000716746
0.000702478
0.000719676
0.000661701
0.000718325
0.000716746
0.000702478
0.000719676
0.000661701
0.000718325
0.000716745
0.000702476
0.000719674
0.000661699
0.000718323
0.000716744
0.000702475
0.000719673
0.000661697
0.000718321
0.00071674
0.00070247
0.000719669
0.000661692
0.000718317
0.000716738
0.000702468
0.000719666
0.000661689
0.000718314
0.000716735
0.000702465
0.000719662
0.000661685
0.000718308
0.000716733
0.000702464
0.000719661
0.000661683
0.000718306
0.000716776
0.000702524
0.000719698
0.00066176
0.000718342
0.000716781
0.000702532
0.000719702
0.00066177
0.000718346
0.000717366
0.000703392
0.00072029
0.000663082
0.000719125
0.000715582
0.000701549
0.000718761
0.000661613
0.000715976
0.000715009
0.000700711
0.000718189
0.000660345
0.000715209
0.000715004
0.000700703
0.000718184
0.000660335
0.000715205
0.000714961
0.000700642
0.000718147
0.000660259
0.000715169
0.000714962
0.000700644
0.000718149
0.000660261
0.000715172
0.000714965
0.000700647
0.000718153
0.000660264
0.000715178
0.000714968
0.000700649
0.000718156
0.000660268
0.000715181
0.000714972
0.000700654
0.00071816
0.000660273
0.000715186
0.000714973
0.000700655
0.000718161
0.000660275
0.000715187
0.000714974
0.000700657
0.000718163
0.000660276
0.000715189
0.000714974
0.000700657
0.000718163
0.000660276
0.000715189
0.000714973
0.000700655
0.000718161
0.000660275
0.000715187
0.000714972
0.000700654
0.00071816
0.000660273
0.000715186
0.000714968
0.000700649
0.000718156
0.000660268
0.000715181
0.000714965
0.000700647
0.000718153
0.000660264
0.000715178
0.000714962
0.000700644
0.000718149
0.000660261
0.000715172
0.000714961
0.000700642
0.000718147
0.000660259
0.000715169
0.000715004
0.000700703
0.000718184
0.000660335
0.000715205
0.000715009
0.000700711
0.000718189
0.000660345
0.000715209
0.000715582
0.000701549
0.000718761
0.000661613
0.000715976
0.000713806
0.00069972
0.000717239
0.000660046
0.000712849
0.000713245
0.000698903
0.000716682
0.00065882
0.000712094
0.00071324
0.000698895
0.000716678
0.000658811
0.000712091
0.000713197
0.000698834
0.000716641
0.000658735
0.000712056
0.000713198
0.000698836
0.000716642
0.000658737
0.000712058
0.000713201
0.000698839
0.000716647
0.000658741
0.000712064
0.000713203
0.000698841
0.000716649
0.000658744
0.000712067
0.000713207
0.000698846
0.000716654
0.00065875
0.000712072
0.000713209
0.000698847
0.000716655
0.000658751
0.000712074
0.00071321
0.000698849
0.000716656
0.000658753
0.000712076
0.00071321
0.000698849
0.000716656
0.000658753
0.000712076
0.000713209
0.000698847
0.000716655
0.000658751
0.000712074
0.000713207
0.000698846
0.000716654
0.00065875
0.000712072
0.000713203
0.000698841
0.000716649
0.000658744
0.000712067
0.000713201
0.000698839
0.000716647
0.000658741
0.000712064
0.000713198
0.000698836
0.000716642
0.000658737
0.000712058
0.000713197
0.000698834
0.000716641
0.000658735
0.000712056
0.00071324
0.000698895
0.000716678
0.000658811
0.000712091
0.000713245
0.000698903
0.000716682
0.00065882
0.000712094
0.000713806
0.00069972
0.000717239
0.000660046
0.000712849
0.000712038
0.000697904
0.000715723
0.000658383
0.000709529
0.000711489
0.000697108
0.000715182
0.0006572
0.000708787
0.000711483
0.0006971
0.000715178
0.000657191
0.000708783
0.00071144
0.000697039
0.000715141
0.000657116
0.000708749
0.000711441
0.000697041
0.000715143
0.000657118
0.000708752
0.000711444
0.000697043
0.000715147
0.000657122
0.000708758
0.000711447
0.000697046
0.00071515
0.000657125
0.000708761
0.000711451
0.000697051
0.000715155
0.00065713
0.000708766
0.000711452
0.000697052
0.000715156
0.000657132
0.000708768
0.000711454
0.000697054
0.000715157
0.000657134
0.00070877
0.000711454
0.000697054
0.000715157
0.000657134
0.00070877
0.000711452
0.000697052
0.000715156
0.000657132
0.000708768
0.000711451
0.000697051
0.000715155
0.00065713
0.000708766
0.000711447
0.000697046
0.00071515
0.000657125
0.000708761
0.000711444
0.000697043
0.000715147
0.000657122
0.000708758
0.000711441
0.000697041
0.000715143
0.000657118
0.000708752
0.00071144
0.000697039
0.000715141
0.000657116
0.000708749
0.000711483
0.0006971
0.000715178
0.000657191
0.000708783
0.000711489
0.000697108
0.000715182
0.0006572
0.000708787
0.000712038
0.000697904
0.000715723
0.000658383
0.000709529
-1.19496e-05
2.09353e-05
3.35581e-06
6.54663e-07
2.19351e-07
1.71728e-07
1.62773e-07
1.61845e-07
1.61638e-07
1.61617e-07
1.6161e-07
1.61607e-07
1.61572e-07
1.61517e-07
1.60981e-07
1.60476e-07
1.5501e-07
1.52323e-07
1.14111e-07
1.09313e-07
-1.22056e-05
2.1038e-05
3.40079e-06
6.60282e-07
2.20225e-07
1.71836e-07
1.62769e-07
1.61826e-07
1.61616e-07
1.61595e-07
1.61588e-07
1.61585e-07
1.61549e-07
1.61494e-07
1.60952e-07
1.60443e-07
1.54932e-07
1.52238e-07
1.13868e-07
1.09153e-07
-1.2209e-05
2.10392e-05
3.40138e-06
6.60377e-07
2.20244e-07
1.71839e-07
1.62769e-07
1.61826e-07
1.61616e-07
1.61594e-07
1.61588e-07
1.61584e-07
1.61549e-07
1.61494e-07
1.60951e-07
1.60442e-07
1.54931e-07
1.52237e-07
1.13866e-07
1.09152e-07
-1.222e-05
2.1042e-05
3.40269e-06
6.60606e-07
2.20283e-07
1.71844e-07
1.62769e-07
1.61825e-07
1.61615e-07
1.61593e-07
1.61587e-07
1.61583e-07
1.61548e-07
1.61492e-07
1.6095e-07
1.60441e-07
1.54927e-07
1.52233e-07
1.13859e-07
1.09148e-07
-1.222e-05
2.10421e-05
3.40274e-06
6.60615e-07
2.20285e-07
1.71844e-07
1.62769e-07
1.61825e-07
1.61615e-07
1.61593e-07
1.61587e-07
1.61583e-07
1.61548e-07
1.61492e-07
1.6095e-07
1.60441e-07
1.54927e-07
1.52233e-07
1.13859e-07
1.09148e-07
-1.22199e-05
2.10423e-05
3.40279e-06
6.60624e-07
2.20286e-07
1.71845e-07
1.62769e-07
1.61825e-07
1.61615e-07
1.61593e-07
1.61587e-07
1.61583e-07
1.61548e-07
1.61492e-07
1.6095e-07
1.6044e-07
1.54927e-07
1.52233e-07
1.13859e-07
1.09148e-07
-1.22197e-05
2.10423e-05
3.40281e-06
6.60625e-07
2.20287e-07
1.71845e-07
1.62769e-07
1.61825e-07
1.61615e-07
1.61593e-07
1.61587e-07
1.61583e-07
1.61548e-07
1.61492e-07
1.6095e-07
1.6044e-07
1.54927e-07
1.52233e-07
1.13859e-07
1.09148e-07
-1.22194e-05
2.10424e-05
3.40282e-06
6.60627e-07
2.20287e-07
1.71845e-07
1.62769e-07
1.61825e-07
1.61615e-07
1.61593e-07
1.61587e-07
1.61583e-07
1.61548e-07
1.61492e-07
1.6095e-07
1.6044e-07
1.54927e-07
1.52233e-07
1.13859e-07
1.09148e-07
-1.22192e-05
2.10424e-05
3.40283e-06
6.60627e-07
2.20287e-07
1.71845e-07
1.62769e-07
1.61825e-07
1.61615e-07
1.61593e-07
1.61587e-07
1.61583e-07
1.61548e-07
1.61492e-07
1.6095e-07
1.6044e-07
1.54927e-07
1.52233e-07
1.13859e-07
1.09148e-07
-1.22191e-05
2.10424e-05
3.40283e-06
6.60627e-07
2.20287e-07
1.71845e-07
1.62769e-07
1.61825e-07
1.61615e-07
1.61593e-07
1.61587e-07
1.61583e-07
1.61548e-07
1.61492e-07
1.6095e-07
1.6044e-07
1.54927e-07
1.52233e-07
1.13859e-07
1.09148e-07
-1.22191e-05
2.10424e-05
3.40283e-06
6.60627e-07
2.20287e-07
1.71845e-07
1.62769e-07
1.61825e-07
1.61615e-07
1.61593e-07
1.61587e-07
1.61583e-07
1.61548e-07
1.61492e-07
1.6095e-07
1.6044e-07
1.54927e-07
1.52233e-07
1.13859e-07
1.09148e-07
-1.22192e-05
2.10424e-05
3.40283e-06
6.60627e-07
2.20287e-07
1.71845e-07
1.62769e-07
1.61825e-07
1.61615e-07
1.61593e-07
1.61587e-07
1.61583e-07
1.61548e-07
1.61492e-07
1.6095e-07
1.6044e-07
1.54927e-07
1.52233e-07
1.13859e-07
1.09148e-07
-1.22194e-05
2.10424e-05
3.40282e-06
6.60627e-07
2.20287e-07
1.71845e-07
1.62769e-07
1.61825e-07
1.61615e-07
1.61593e-07
1.61587e-07
1.61583e-07
1.61548e-07
1.61492e-07
1.6095e-07
1.6044e-07
1.54927e-07
1.52233e-07
1.13859e-07
1.09148e-07
-1.22197e-05
2.10423e-05
3.40281e-06
6.60625e-07
2.20287e-07
1.71845e-07
1.62769e-07
1.61825e-07
1.61615e-07
1.61593e-07
1.61587e-07
1.61583e-07
1.61548e-07
1.61492e-07
1.6095e-07
1.6044e-07
1.54927e-07
1.52233e-07
1.13859e-07
1.09148e-07
-1.22199e-05
2.10423e-05
3.40279e-06
6.60624e-07
2.20286e-07
1.71845e-07
1.62769e-07
1.61825e-07
1.61615e-07
1.61593e-07
1.61587e-07
1.61583e-07
1.61548e-07
1.61492e-07
1.6095e-07
1.6044e-07
1.54927e-07
1.52233e-07
1.13859e-07
1.09148e-07
-1.222e-05
2.10421e-05
3.40274e-06
6.60615e-07
2.20285e-07
1.71844e-07
1.62769e-07
1.61825e-07
1.61615e-07
1.61593e-07
1.61587e-07
1.61583e-07
1.61548e-07
1.61492e-07
1.6095e-07
1.60441e-07
1.54927e-07
1.52233e-07
1.13859e-07
1.09148e-07
-1.222e-05
2.1042e-05
3.40269e-06
6.60606e-07
2.20283e-07
1.71844e-07
1.62769e-07
1.61825e-07
1.61615e-07
1.61593e-07
1.61587e-07
1.61583e-07
1.61548e-07
1.61492e-07
1.6095e-07
1.60441e-07
1.54927e-07
1.52233e-07
1.13859e-07
1.09148e-07
-1.2209e-05
2.10392e-05
3.40138e-06
6.60377e-07
2.20244e-07
1.71839e-07
1.62769e-07
1.61826e-07
1.61616e-07
1.61594e-07
1.61588e-07
1.61584e-07
1.61549e-07
1.61494e-07
1.60951e-07
1.60442e-07
1.54931e-07
1.52237e-07
1.13866e-07
1.09152e-07
-1.22056e-05
2.1038e-05
3.40079e-06
6.60282e-07
2.20225e-07
1.71836e-07
1.62769e-07
1.61826e-07
1.61616e-07
1.61595e-07
1.61588e-07
1.61585e-07
1.61549e-07
1.61494e-07
1.60952e-07
1.60443e-07
1.54932e-07
1.52238e-07
1.13868e-07
1.09153e-07
-1.19496e-05
2.09353e-05
3.35581e-06
6.54663e-07
2.19351e-07
1.71728e-07
1.62773e-07
1.61845e-07
1.61638e-07
1.61617e-07
1.6161e-07
1.61607e-07
1.61572e-07
1.61517e-07
1.60981e-07
1.60476e-07
1.5501e-07
1.52323e-07
1.14111e-07
1.09313e-07
-1.20522e-05
2.1145e-05
3.38382e-06
6.59408e-07
2.19903e-07
1.71845e-07
1.62849e-07
1.61936e-07
1.61726e-07
1.61705e-07
1.61698e-07
1.61694e-07
1.61659e-07
1.61604e-07
1.6106e-07
1.60511e-07
1.5494e-07
1.52237e-07
1.13547e-07
1.0872e-07
-1.23021e-05
2.12494e-05
3.42921e-06
6.65082e-07
2.20786e-07
1.71955e-07
1.62844e-07
1.61917e-07
1.61705e-07
1.61683e-07
1.61676e-07
1.61673e-07
1.61637e-07
1.61581e-07
1.61031e-07
1.60477e-07
1.54862e-07
1.52151e-07
1.13301e-07
1.08557e-07
-1.23054e-05
2.12506e-05
3.4298e-06
6.65178e-07
2.20805e-07
1.71958e-07
1.62844e-07
1.61917e-07
1.61704e-07
1.61683e-07
1.61676e-07
1.61672e-07
1.61636e-07
1.6158e-07
1.6103e-07
1.60477e-07
1.5486e-07
1.52149e-07
1.13298e-07
1.08555e-07
-1.23164e-05
2.12534e-05
3.43113e-06
6.65409e-07
2.20845e-07
1.71963e-07
1.62844e-07
1.61916e-07
1.61703e-07
1.61681e-07
1.61675e-07