/*--------------------------------*- C++ -*----------------------------------*\
  =========                 |
  \\      /  F ield         | OpenFOAM: The Open Source CFD Toolbox
   \\    /   O peration     | Website:  https://openfoam.org
    \\  /    A nd           | Version:  8
     \\/     M anipulation  |
\*---------------------------------------------------------------------------*/
FoamFile
{
    version     2.0;
    format      ascii;
    class       volScalarField;
    location    "0.4";
    object      S1;
}
// * * * * * * * * * * * * * * * * * * * * * * * * * * * * * * * * * * * * * //

dimensions      [0 1 -1 0 0 0 0];

internalField   nonuniform List<scalar> 
180000
(
-5.08273e-46
-2.58899e-40
-1.51231e-34
-8.41908e-29
-4.35569e-23
-6.18174e-46
-3.25661e-40
-1.91362e-34
-1.07241e-28
-5.58863e-23
-6.20581e-46
-3.27041e-40
-1.9221e-34
-1.0774e-28
-5.61598e-23
-6.2634e-46
-3.30502e-40
-1.94332e-34
-1.08984e-28
-5.68397e-23
-6.26336e-46
-3.3048e-40
-1.94321e-34
-1.08979e-28
-5.68381e-23
-6.2634e-46
-3.30449e-40
-1.94304e-34
-1.0897e-28
-5.68337e-23
-6.26253e-46
-3.3038e-40
-1.94262e-34
-1.08946e-28
-5.68208e-23
-6.26191e-46
-3.30318e-40
-1.94223e-34
-1.08923e-28
-5.68082e-23
-6.26153e-46
-3.30285e-40
-1.94203e-34
-1.08911e-28
-5.68018e-23
-6.26135e-46
-3.30267e-40
-1.94192e-34
-1.08905e-28
-5.67981e-23
-6.26135e-46
-3.30267e-40
-1.94192e-34
-1.08905e-28
-5.67981e-23
-6.26153e-46
-3.30285e-40
-1.94203e-34
-1.08911e-28
-5.68018e-23
-6.26191e-46
-3.30318e-40
-1.94223e-34
-1.08923e-28
-5.68082e-23
-6.26253e-46
-3.3038e-40
-1.94262e-34
-1.08946e-28
-5.68208e-23
-6.26339e-46
-3.30449e-40
-1.94304e-34
-1.0897e-28
-5.68337e-23
-6.26336e-46
-3.3048e-40
-1.94321e-34
-1.08979e-28
-5.68381e-23
-6.26341e-46
-3.30502e-40
-1.94332e-34
-1.08984e-28
-5.68397e-23
-6.20582e-46
-3.27041e-40
-1.9221e-34
-1.0774e-28
-5.61598e-23
-6.18174e-46
-3.25661e-40
-1.91362e-34
-1.07241e-28
-5.58863e-23
-5.08273e-46
-2.58899e-40
-1.51231e-34
-8.41907e-29
-4.35569e-23
-8.9649e-44
-8.24163e-39
-9.9031e-33
-1.12037e-26
-1.65798e-20
-7.81484e-44
-1.01338e-38
-1.22763e-32
-1.40023e-26
-2.0869e-20
-7.82594e-44
-1.01738e-38
-1.23262e-32
-1.40608e-26
-2.09581e-20
-7.8046e-44
-1.02772e-38
-1.24563e-32
-1.42145e-26
-2.11941e-20
-7.81137e-44
-1.02771e-38
-1.24562e-32
-1.42143e-26
-2.11938e-20
-7.82119e-44
-1.02769e-38
-1.24558e-32
-1.42137e-26
-2.11928e-20
-7.82678e-44
-1.02752e-38
-1.24536e-32
-1.42109e-26
-2.11886e-20
-7.83434e-44
-1.02737e-38
-1.24516e-32
-1.42083e-26
-2.11845e-20
-7.83737e-44
-1.02729e-38
-1.24505e-32
-1.4207e-26
-2.11824e-20
-7.83974e-44
-1.02724e-38
-1.24499e-32
-1.42062e-26
-2.11811e-20
-7.83975e-44
-1.02724e-38
-1.24499e-32
-1.42062e-26
-2.11811e-20
-7.83737e-44
-1.02729e-38
-1.24505e-32
-1.4207e-26
-2.11824e-20
-7.83434e-44
-1.02737e-38
-1.24516e-32
-1.42083e-26
-2.11845e-20
-7.82678e-44
-1.02752e-38
-1.24536e-32
-1.42109e-26
-2.11886e-20
-7.82119e-44
-1.02769e-38
-1.24558e-32
-1.42137e-26
-2.11928e-20
-7.81137e-44
-1.02771e-38
-1.24562e-32
-1.42143e-26
-2.11938e-20
-7.8046e-44
-1.02772e-38
-1.24563e-32
-1.42145e-26
-2.11941e-20
-7.82594e-44
-1.01738e-38
-1.23262e-32
-1.40608e-26
-2.09581e-20
-7.81484e-44
-1.01338e-38
-1.22763e-32
-1.40023e-26
-2.0869e-20
-8.9649e-44
-8.24163e-39
-9.9031e-33
-1.12037e-26
-1.65798e-20
-2.01048e-42
-2.2286e-36
-2.75333e-30
-3.18278e-24
-4.77817e-18
-2.40004e-42
-2.69608e-36
-3.35627e-30
-3.90765e-24
-5.90293e-18
-2.40808e-42
-2.70541e-36
-3.36816e-30
-3.92177e-24
-5.92466e-18
-2.42902e-42
-2.73037e-36
-3.40038e-30
-3.96047e-24
-5.98467e-18
-2.42904e-42
-2.73034e-36
-3.40031e-30
-3.96037e-24
-5.98451e-18
-2.42906e-42
-2.73027e-36
-3.4002e-30
-3.96017e-24
-5.98418e-18
-2.42875e-42
-2.72985e-36
-3.39964e-30
-3.95947e-24
-5.98308e-18
-2.42851e-42
-2.72948e-36
-3.39912e-30
-3.9588e-24
-5.982e-18
-2.42837e-42
-2.72928e-36
-3.39885e-30
-3.95845e-24
-5.98145e-18
-2.4283e-42
-2.72917e-36
-3.3987e-30
-3.95826e-24
-5.98113e-18
-2.4283e-42
-2.72917e-36
-3.3987e-30
-3.95826e-24
-5.98113e-18
-2.42837e-42
-2.72928e-36
-3.39885e-30
-3.95845e-24
-5.98145e-18
-2.42851e-42
-2.72948e-36
-3.39912e-30
-3.9588e-24
-5.982e-18
-2.42875e-42
-2.72985e-36
-3.39964e-30
-3.95947e-24
-5.98308e-18
-2.42906e-42
-2.73027e-36
-3.4002e-30
-3.96017e-24
-5.98418e-18
-2.42904e-42
-2.73034e-36
-3.40031e-30
-3.96037e-24
-5.98451e-18
-2.42902e-42
-2.73037e-36
-3.40038e-30
-3.96047e-24
-5.98467e-18
-2.40808e-42
-2.70541e-36
-3.36816e-30
-3.92177e-24
-5.92466e-18
-2.40004e-42
-2.69608e-36
-3.35627e-30
-3.90765e-24
-5.90293e-18
-2.01048e-42
-2.2286e-36
-2.75333e-30
-3.18278e-24
-4.77817e-18
-2.69223e-40
-3.00366e-34
-3.63344e-28
-4.10514e-22
-6.03944e-16
-3.17713e-40
-3.56877e-34
-4.34791e-28
-4.9449e-22
-7.31678e-16
-3.18656e-40
-3.57959e-34
-4.36139e-28
-4.96051e-22
-7.34026e-16
-3.21195e-40
-3.6092e-34
-4.39879e-28
-5.00433e-22
-7.40677e-16
-3.21191e-40
-3.60914e-34
-4.39869e-28
-5.00418e-22
-7.40654e-16
-3.21186e-40
-3.60905e-34
-4.39853e-28
-5.00392e-22
-7.40611e-16
-3.21146e-40
-3.60854e-34
-4.39787e-28
-5.00311e-22
-7.40485e-16
-3.21112e-40
-3.6081e-34
-4.39726e-28
-5.00233e-22
-7.40362e-16
-3.21093e-40
-3.60786e-34
-4.39694e-28
-5.00193e-22
-7.403e-16
-3.21083e-40
-3.60774e-34
-4.39676e-28
-5.0017e-22
-7.40264e-16
-3.21083e-40
-3.60774e-34
-4.39676e-28
-5.0017e-22
-7.40264e-16
-3.21093e-40
-3.60786e-34
-4.39694e-28
-5.00193e-22
-7.403e-16
-3.21112e-40
-3.6081e-34
-4.39726e-28
-5.00233e-22
-7.40362e-16
-3.21146e-40
-3.60854e-34
-4.39787e-28
-5.00311e-22
-7.40485e-16
-3.21186e-40
-3.60905e-34
-4.39853e-28
-5.00392e-22
-7.40611e-16
-3.21191e-40
-3.60914e-34
-4.39869e-28
-5.00418e-22
-7.40654e-16
-3.21195e-40
-3.6092e-34
-4.39879e-28
-5.00433e-22
-7.40677e-16
-3.18656e-40
-3.57959e-34
-4.36139e-28
-4.96051e-22
-7.34026e-16
-3.17713e-40
-3.56877e-34
-4.34791e-28
-4.9449e-22
-7.31678e-16
-2.69223e-40
-3.00366e-34
-3.63344e-28
-4.10514e-22
-6.03944e-16
-2.21774e-38
-2.38351e-32
-2.7828e-26
-3.02621e-20
-4.30928e-14
-2.56657e-38
-2.77615e-32
-3.26309e-26
-3.57022e-20
-5.11105e-14
-2.57321e-38
-2.78348e-32
-3.2719e-26
-3.58e-20
-5.12526e-14
-2.59128e-38
-2.80379e-32
-3.29667e-26
-3.60791e-20
-5.16621e-14
-2.59126e-38
-2.80375e-32
-3.2966e-26
-3.6078e-20
-5.16604e-14
-2.59122e-38
-2.80368e-32
-3.29648e-26
-3.60761e-20
-5.16574e-14
-2.59094e-38
-2.80333e-32
-3.29604e-26
-3.60709e-20
-5.16495e-14
-2.5907e-38
-2.80303e-32
-3.29563e-26
-3.60658e-20
-5.16418e-14
-2.59057e-38
-2.80287e-32
-3.29542e-26
-3.60632e-20
-5.16379e-14
-2.5905e-38
-2.80278e-32
-3.2953e-26
-3.60617e-20
-5.16356e-14
-2.5905e-38
-2.80278e-32
-3.2953e-26
-3.60617e-20
-5.16356e-14
-2.59057e-38
-2.80287e-32
-3.29542e-26
-3.60632e-20
-5.16379e-14
-2.5907e-38
-2.80303e-32
-3.29563e-26
-3.60658e-20
-5.16418e-14
-2.59094e-38
-2.80333e-32
-3.29604e-26
-3.60709e-20
-5.16495e-14
-2.59122e-38
-2.80368e-32
-3.29648e-26
-3.60761e-20
-5.16574e-14
-2.59126e-38
-2.80375e-32
-3.2966e-26
-3.6078e-20
-5.16604e-14
-2.59128e-38
-2.80379e-32
-3.29667e-26
-3.60791e-20
-5.16621e-14
-2.57321e-38
-2.78348e-32
-3.2719e-26
-3.58001e-20
-5.12526e-14
-2.56658e-38
-2.77615e-32
-3.26309e-26
-3.57022e-20
-5.11105e-14
-2.21774e-38
-2.38351e-32
-2.7828e-26
-3.02621e-20
-4.30928e-14
-1.24007e-36
-1.26952e-30
-1.41586e-24
-1.46566e-18
-2.00154e-12
-1.40386e-36
-1.44582e-30
-1.62256e-24
-1.6889e-18
-2.31757e-12
-1.40696e-36
-1.44907e-30
-1.62629e-24
-1.69283e-18
-2.32302e-12
-1.41543e-36
-1.45815e-30
-1.63686e-24
-1.70414e-18
-2.33891e-12
-1.41543e-36
-1.45813e-30
-1.63684e-24
-1.70409e-18
-2.33885e-12
-1.41542e-36
-1.4581e-30
-1.63679e-24
-1.70401e-18
-2.33872e-12
-1.41529e-36
-1.45795e-30
-1.6366e-24
-1.7038e-18
-2.33841e-12
-1.41518e-36
-1.45782e-30
-1.63643e-24
-1.70359e-18
-2.33811e-12
-1.41512e-36
-1.45775e-30
-1.63634e-24
-1.70349e-18
-2.33795e-12
-1.41509e-36
-1.45771e-30
-1.63629e-24
-1.70343e-18
-2.33786e-12
-1.41509e-36
-1.45771e-30
-1.63629e-24
-1.70343e-18
-2.33786e-12
-1.41512e-36
-1.45775e-30
-1.63634e-24
-1.70349e-18
-2.33795e-12
-1.41518e-36
-1.45782e-30
-1.63643e-24
-1.70359e-18
-2.33811e-12
-1.41529e-36
-1.45795e-30
-1.6366e-24
-1.7038e-18
-2.33841e-12
-1.41542e-36
-1.4581e-30
-1.63679e-24
-1.70401e-18
-2.33872e-12
-1.41543e-36
-1.45813e-30
-1.63684e-24
-1.70409e-18
-2.33885e-12
-1.41543e-36
-1.45815e-30
-1.63686e-24
-1.70414e-18
-2.33891e-12
-1.40696e-36
-1.44907e-30
-1.62629e-24
-1.69283e-18
-2.32302e-12
-1.40386e-36
-1.44582e-30
-1.62256e-24
-1.6889e-18
-2.31757e-12
-1.24007e-36
-1.26952e-30
-1.41586e-24
-1.46566e-18
-2.00154e-12
-5.16599e-35
-4.97594e-29
-5.24159e-23
-5.1019e-17
-6.61502e-11
-5.6988e-35
-5.51909e-29
-5.84662e-23
-5.7182e-17
-7.44596e-11
-5.70908e-35
-5.52921e-29
-5.85753e-23
-5.72893e-17
-7.46006e-11
-5.73702e-35
-5.55739e-29
-5.88852e-23
-5.76e-17
-7.50139e-11
-5.73706e-35
-5.55738e-29
-5.88847e-23
-5.7599e-17
-7.50123e-11
-5.73709e-35
-5.55734e-29
-5.88837e-23
-5.75969e-17
-7.50091e-11
-5.7367e-35
-5.5569e-29
-5.88784e-23
-5.75911e-17
-7.50011e-11
-5.73641e-35
-5.55653e-29
-5.88737e-23
-5.75855e-17
-7.49931e-11
-5.73623e-35
-5.55632e-29
-5.88711e-23
-5.75826e-17
-7.49891e-11
-5.73615e-35
-5.55622e-29
-5.88697e-23
-5.7581e-17
-7.49867e-11
-5.73615e-35
-5.55622e-29
-5.88697e-23
-5.7581e-17
-7.49867e-11
-5.73623e-35
-5.55632e-29
-5.88711e-23
-5.75826e-17
-7.49891e-11
-5.73641e-35
-5.55653e-29
-5.88737e-23
-5.75855e-17
-7.49931e-11
-5.7367e-35
-5.5569e-29
-5.88784e-23
-5.75911e-17
-7.50011e-11
-5.73709e-35
-5.55734e-29
-5.88837e-23
-5.75969e-17
-7.50091e-11
-5.73706e-35
-5.55738e-29
-5.88847e-23
-5.7599e-17
-7.50123e-11
-5.73702e-35
-5.55739e-29
-5.88852e-23
-5.76e-17
-7.50139e-11
-5.70908e-35
-5.52921e-29
-5.85753e-23
-5.72894e-17
-7.46006e-11
-5.6988e-35
-5.51909e-29
-5.84662e-23
-5.7182e-17
-7.44596e-11
-5.16599e-35
-4.97594e-29
-5.24159e-23
-5.1019e-17
-6.61502e-11
-1.72639e-33
-1.5354e-27
-1.50284e-21
-1.35138e-15
-1.64118e-09
-1.84353e-33
-1.64787e-27
-1.62121e-21
-1.46394e-15
-1.78465e-09
-1.84597e-33
-1.65008e-27
-1.62341e-21
-1.46592e-15
-1.78707e-09
-1.85248e-33
-1.65616e-27
-1.62964e-21
-1.47166e-15
-1.7942e-09
-1.85252e-33
-1.65619e-27
-1.62965e-21
-1.47166e-15
-1.79418e-09
-1.85258e-33
-1.65621e-27
-1.62966e-21
-1.47163e-15
-1.79414e-09
-1.85251e-33
-1.65613e-27
-1.62956e-21
-1.47153e-15
-1.79401e-09
-1.85248e-33
-1.65608e-27
-1.62948e-21
-1.47144e-15
-1.79387e-09
-1.85245e-33
-1.65604e-27
-1.62944e-21
-1.47139e-15
-1.79381e-09
-1.85244e-33
-1.65602e-27
-1.62941e-21
-1.47136e-15
-1.79377e-09
-1.85244e-33
-1.65602e-27
-1.62941e-21
-1.47136e-15
-1.79377e-09
-1.85245e-33
-1.65604e-27
-1.62944e-21
-1.47139e-15
-1.79381e-09
-1.85248e-33
-1.65608e-27
-1.62948e-21
-1.47144e-15
-1.79387e-09
-1.85251e-33
-1.65613e-27
-1.62956e-21
-1.47153e-15
-1.79401e-09
-1.85258e-33
-1.65621e-27
-1.62966e-21
-1.47163e-15
-1.79414e-09
-1.85252e-33
-1.65619e-27
-1.62965e-21
-1.47166e-15
-1.79418e-09
-1.85248e-33
-1.65616e-27
-1.62964e-21
-1.47166e-15
-1.7942e-09
-1.84597e-33
-1.65008e-27
-1.62341e-21
-1.46592e-15
-1.78707e-09
-1.84353e-33
-1.64787e-27
-1.62121e-21
-1.46394e-15
-1.78465e-09
-1.72639e-33
-1.5354e-27
-1.50284e-21
-1.35138e-15
-1.64118e-09
-4.93887e-32
-3.90961e-26
-3.45239e-20
-2.78141e-14
-3.09526e-08
-5.04189e-32
-4.01436e-26
-3.56394e-20
-2.88351e-14
-3.22045e-08
-5.04537e-32
-4.01719e-26
-3.56648e-20
-2.88552e-14
-3.22265e-08
-5.05384e-32
-4.02454e-26
-3.57345e-20
-2.89126e-14
-3.22915e-08
-5.05411e-32
-4.0247e-26
-3.57355e-20
-2.8913e-14
-3.22918e-08
-5.05447e-32
-4.02492e-26
-3.57369e-20
-2.89135e-14
-3.2292e-08
-5.05454e-32
-4.02492e-26
-3.57365e-20
-2.89128e-14
-3.2291e-08
-5.05469e-32
-4.02497e-26
-3.57364e-20
-2.89123e-14
-3.22901e-08
-5.05474e-32
-4.02498e-26
-3.57363e-20
-2.89119e-14
-3.22896e-08
-5.05479e-32
-4.025e-26
-3.57362e-20
-2.89118e-14
-3.22893e-08
-5.05479e-32
-4.025e-26
-3.57362e-20
-2.89118e-14
-3.22893e-08
-5.05474e-32
-4.02498e-26
-3.57363e-20
-2.89119e-14
-3.22896e-08
-5.05469e-32
-4.02497e-26
-3.57364e-20
-2.89123e-14
-3.22901e-08
-5.05454e-32
-4.02492e-26
-3.57365e-20
-2.89128e-14
-3.2291e-08
-5.05447e-32
-4.02492e-26
-3.57369e-20
-2.89135e-14
-3.2292e-08
-5.05411e-32
-4.0247e-26
-3.57355e-20
-2.8913e-14
-3.22918e-08
-5.05384e-32
-4.02454e-26
-3.57345e-20
-2.89126e-14
-3.22915e-08
-5.04537e-32
-4.01719e-26
-3.56648e-20
-2.88552e-14
-3.22265e-08
-5.04189e-32
-4.01436e-26
-3.56394e-20
-2.88351e-14
-3.22045e-08
-4.93887e-32
-3.90961e-26
-3.45239e-20
-2.78141e-14
-3.09526e-08
-1.22727e-30
-8.06771e-25
-6.0562e-19
-4.09998e-13
-3.99257e-07
-1.17268e-30
-7.76611e-25
-5.87042e-19
-3.99709e-13
-3.90609e-07
-1.17242e-30
-7.76449e-25
-5.86925e-19
-3.9962e-13
-3.9051e-07
-1.17129e-30
-7.75814e-25
-5.86515e-19
-3.99347e-13
-3.90227e-07
-1.17141e-30
-7.75877e-25
-5.86554e-19
-3.99365e-13
-3.9024e-07
-1.17158e-30
-7.75972e-25
-5.86613e-19
-3.99392e-13
-3.90261e-07
-1.17169e-30
-7.7603e-25
-5.86648e-19
-3.99409e-13
-3.90275e-07
-1.17182e-30
-7.76098e-25
-5.86689e-19
-3.99429e-13
-3.9029e-07
-1.17187e-30
-7.76128e-25
-5.86706e-19
-3.99437e-13
-3.90297e-07
-1.17191e-30
-7.76148e-25
-5.86718e-19
-3.99443e-13
-3.90302e-07
-1.17191e-30
-7.76148e-25
-5.86718e-19
-3.99443e-13
-3.90302e-07
-1.17187e-30
-7.76128e-25
-5.86706e-19
-3.99437e-13
-3.90297e-07
-1.17182e-30
-7.76098e-25
-5.86689e-19
-3.99429e-13
-3.9029e-07
-1.17169e-30
-7.7603e-25
-5.86648e-19
-3.99409e-13
-3.90275e-07
-1.17158e-30
-7.75972e-25
-5.86613e-19
-3.99392e-13
-3.90261e-07
-1.17141e-30
-7.75877e-25
-5.86554e-19
-3.99365e-13
-3.9024e-07
-1.17129e-30
-7.75814e-25
-5.86515e-19
-3.99347e-13
-3.90227e-07
-1.17242e-30
-7.76449e-25
-5.86925e-19
-3.9962e-13
-3.9051e-07
-1.17268e-30
-7.76611e-25
-5.87042e-19
-3.99709e-13
-3.90609e-07
-1.22727e-30
-8.06771e-25
-6.0562e-19
-4.09998e-13
-3.99257e-07
-5.98072e-30
-3.1351e-24
-1.77817e-18
-8.13536e-13
-4.07018e-07
-5.68544e-30
-3.00438e-24
-1.71804e-18
-7.91871e-13
-3.98628e-07
-5.68383e-30
-3.00358e-24
-1.71762e-18
-7.9168e-13
-3.98535e-07
-5.67733e-30
-3.00065e-24
-1.71624e-18
-7.91103e-13
-3.98272e-07
-5.67795e-30
-3.00091e-24
-1.71636e-18
-7.9114e-13
-3.98286e-07
-5.67884e-30
-3.0013e-24
-1.71654e-18
-7.91196e-13
-3.98307e-07
-5.67941e-30
-3.00154e-24
-1.71665e-18
-7.91231e-13
-3.98321e-07
-5.68006e-30
-3.00182e-24
-1.71677e-18
-7.91271e-13
-3.98336e-07
-5.68035e-30
-3.00194e-24
-1.71683e-18
-7.91289e-13
-3.98343e-07
-5.68055e-30
-3.00203e-24
-1.71687e-18
-7.91301e-13
-3.98348e-07
-5.68055e-30
-3.00203e-24
-1.71687e-18
-7.91301e-13
-3.98348e-07
-5.68035e-30
-3.00194e-24
-1.71683e-18
-7.91289e-13
-3.98343e-07
-5.68006e-30
-3.00182e-24
-1.71677e-18
-7.91271e-13
-3.98336e-07
-5.67941e-30
-3.00154e-24
-1.71665e-18
-7.91231e-13
-3.98321e-07
-5.67884e-30
-3.0013e-24
-1.71654e-18
-7.91196e-13
-3.98307e-07
-5.67795e-30
-3.00091e-24
-1.71636e-18
-7.9114e-13
-3.98286e-07
-5.67733e-30
-3.00065e-24
-1.71624e-18
-7.91103e-13
-3.98272e-07
-5.68383e-30
-3.00358e-24
-1.71762e-18
-7.9168e-13
-3.98535e-07
-5.68544e-30
-3.00438e-24
-1.71804e-18
-7.91871e-13
-3.98628e-07
-5.98072e-30
-3.1351e-24
-1.77817e-18
-8.13536e-13
-4.07018e-07
-1.84952e-29
-8.00522e-24
-3.61825e-18
-1.23825e-12
-4.14293e-07
-1.75603e-29
-7.66312e-24
-3.49363e-18
-1.20517e-12
-4.06172e-07
-1.75552e-29
-7.66103e-24
-3.49278e-18
-1.20489e-12
-4.06084e-07
-1.75349e-29
-7.65348e-24
-3.48997e-18
-1.20403e-12
-4.05841e-07
-1.75369e-29
-7.65417e-24
-3.49021e-18
-1.20409e-12
-4.05855e-07
-1.75397e-29
-7.65518e-24
-3.4906e-18
-1.20418e-12
-4.05877e-07
-1.75415e-29
-7.65581e-24
-3.49082e-18
-1.20423e-12
-4.05891e-07
-1.75435e-29
-7.65653e-24
-3.49108e-18
-1.20429e-12
-4.05906e-07
-1.75444e-29
-7.65685e-24
-3.49119e-18
-1.20432e-12
-4.05912e-07
-1.7545e-29
-7.65707e-24
-3.49127e-18
-1.20434e-12
-4.05917e-07
-1.7545e-29
-7.65707e-24
-3.49127e-18
-1.20434e-12
-4.05917e-07
-1.75444e-29
-7.65685e-24
-3.49119e-18
-1.20432e-12
-4.05912e-07
-1.75435e-29
-7.65653e-24
-3.49108e-18
-1.20429e-12
-4.05906e-07
-1.75415e-29
-7.65581e-24
-3.49082e-18
-1.20423e-12
-4.05891e-07
-1.75397e-29
-7.65518e-24
-3.4906e-18
-1.20418e-12
-4.05877e-07
-1.75369e-29
-7.65417e-24
-3.49021e-18
-1.20409e-12
-4.05855e-07
-1.75349e-29
-7.65348e-24
-3.48997e-18
-1.20403e-12
-4.05841e-07
-1.75552e-29
-7.66103e-24
-3.49278e-18
-1.20489e-12
-4.06084e-07
-1.75603e-29
-7.66312e-24
-3.49363e-18
-1.20517e-12
-4.06172e-07
-1.84952e-29
-8.00522e-24
-3.61825e-18
-1.23825e-12
-4.14293e-07
-4.5134e-29
-1.65626e-23
-6.19442e-18
-1.68399e-12
-4.21132e-07
-4.28475e-29
-1.5853e-23
-5.98154e-18
-1.63952e-12
-4.13299e-07
-4.28353e-29
-1.58488e-23
-5.98013e-18
-1.63915e-12
-4.13217e-07
-4.27873e-29
-1.58336e-23
-5.9755e-18
-1.63804e-12
-4.12993e-07
-4.27923e-29
-1.58351e-23
-5.97593e-18
-1.63812e-12
-4.13008e-07
-4.27992e-29
-1.58372e-23
-5.9766e-18
-1.63824e-12
-4.1303e-07
-4.28036e-29
-1.58385e-23
-5.97698e-18
-1.63831e-12
-4.13043e-07
-4.28085e-29
-1.584e-23
-5.97742e-18
-1.6384e-12
-4.13058e-07
-4.28107e-29
-1.58407e-23
-5.97762e-18
-1.63843e-12
-4.13065e-07
-4.28122e-29
-1.58411e-23
-5.97775e-18
-1.63846e-12
-4.13069e-07
-4.28122e-29
-1.58411e-23
-5.97775e-18
-1.63846e-12
-4.13069e-07
-4.28107e-29
-1.58407e-23
-5.97762e-18
-1.63843e-12
-4.13065e-07
-4.28085e-29
-1.584e-23
-5.97742e-18
-1.6384e-12
-4.13058e-07
-4.28036e-29
-1.58385e-23
-5.97698e-18
-1.63831e-12
-4.13043e-07
-4.27992e-29
-1.58372e-23
-5.9766e-18
-1.63824e-12
-4.1303e-07
-4.27923e-29
-1.58351e-23
-5.97593e-18
-1.63812e-12
-4.13008e-07
-4.27873e-29
-1.58336e-23
-5.9755e-18
-1.63804e-12
-4.12993e-07
-4.28353e-29
-1.58488e-23
-5.98013e-18
-1.63915e-12
-4.13217e-07
-4.28475e-29
-1.5853e-23
-5.98154e-18
-1.63952e-12
-4.13299e-07
-4.5134e-29
-1.65626e-23
-6.19442e-18
-1.68399e-12
-4.21132e-07
-9.49275e-29
-3.01273e-23
-9.57638e-18
-2.15032e-12
-4.27446e-07
-9.0152e-29
-2.88457e-23
-9.25093e-18
-2.09457e-12
-4.19925e-07
-9.01274e-29
-2.88383e-23
-9.24885e-18
-2.09412e-12
-4.1985e-07
-9.00313e-29
-2.8812e-23
-9.2421e-18
-2.09279e-12
-4.19644e-07
-9.00419e-29
-2.88147e-23
-9.24278e-18
-2.09289e-12
-4.19659e-07
-9.00565e-29
-2.88186e-23
-9.24382e-18
-2.09304e-12
-4.19681e-07
-9.00658e-29
-2.8821e-23
-9.24442e-18
-2.09313e-12
-4.19694e-07
-9.00761e-29
-2.88236e-23
-9.24509e-18
-2.09324e-12
-4.19709e-07
-9.00807e-29
-2.88248e-23
-9.24539e-18
-2.09328e-12
-4.19715e-07
-9.00838e-29
-2.88256e-23
-9.24558e-18
-2.09331e-12
-4.19719e-07
-9.00838e-29
-2.88256e-23
-9.24558e-18
-2.09331e-12
-4.19719e-07
-9.00807e-29
-2.88248e-23
-9.24539e-18
-2.09328e-12
-4.19715e-07
-9.00761e-29
-2.88236e-23
-9.24509e-18
-2.09324e-12
-4.19709e-07
-9.00658e-29
-2.8821e-23
-9.24442e-18
-2.09313e-12
-4.19694e-07
-9.00565e-29
-2.88186e-23
-9.24382e-18
-2.09304e-12
-4.19681e-07
-9.00419e-29
-2.88147e-23
-9.24278e-18
-2.09289e-12
-4.19659e-07
-9.00313e-29
-2.8812e-23
-9.2421e-18
-2.09279e-12
-4.19644e-07
-9.01274e-29
-2.88383e-23
-9.24885e-18
-2.09412e-12
-4.1985e-07
-9.0152e-29
-2.88457e-23
-9.25093e-18
-2.09457e-12
-4.19925e-07
-9.49275e-29
-3.01273e-23
-9.57638e-18
-2.15032e-12
-4.27446e-07
-1.80099e-28
-5.01985e-23
-1.38328e-17
-2.63645e-12
-4.3313e-07
-1.71148e-28
-4.80896e-23
-1.33705e-17
-2.56961e-12
-4.25948e-07
-1.71104e-28
-4.8078e-23
-1.33677e-17
-2.56909e-12
-4.25878e-07
-1.70932e-28
-4.80367e-23
-1.33586e-17
-2.56756e-12
-4.25691e-07
-1.70952e-28
-4.80412e-23
-1.33596e-17
-2.56769e-12
-4.25706e-07
-1.7098e-28
-4.80477e-23
-1.33611e-17
-2.56788e-12
-4.25728e-07
-1.70998e-28
-4.80517e-23
-1.33619e-17
-2.56799e-12
-4.25741e-07
-1.71017e-28
-4.80561e-23
-1.33629e-17
-2.56812e-12
-4.25755e-07
-1.71025e-28
-4.80581e-23
-1.33633e-17
-2.56817e-12
-4.25761e-07
-1.71031e-28
-4.80594e-23
-1.33636e-17
-2.56821e-12
-4.25765e-07
-1.71031e-28
-4.80594e-23
-1.33636e-17
-2.56821e-12
-4.25765e-07
-1.71025e-28
-4.80581e-23
-1.33633e-17
-2.56817e-12
-4.25761e-07
-1.71017e-28
-4.80561e-23
-1.33629e-17
-2.56812e-12
-4.25755e-07
-1.70998e-28
-4.80517e-23
-1.33619e-17
-2.56799e-12
-4.25741e-07
-1.7098e-28
-4.80477e-23
-1.33611e-17
-2.56788e-12
-4.25728e-07
-1.70952e-28
-4.80412e-23
-1.33596e-17
-2.56769e-12
-4.25706e-07
-1.70932e-28
-4.80367e-23
-1.33586e-17
-2.56756e-12
-4.25691e-07
-1.71104e-28
-4.8078e-23
-1.33677e-17
-2.56909e-12
-4.25878e-07
-1.71148e-28
-4.80896e-23
-1.33705e-17
-2.56961e-12
-4.25948e-07
-1.80099e-28
-5.01985e-23
-1.38328e-17
-2.63645e-12
-4.3313e-07
-3.16597e-28
-7.84507e-23
-1.90289e-17
-3.1411e-12
-4.38063e-07
-3.01104e-28
-7.52083e-23
-1.84059e-17
-3.0635e-12
-4.3125e-07
-3.01032e-28
-7.51912e-23
-1.84022e-17
-3.06292e-12
-4.31186e-07
-3.0075e-28
-7.5131e-23
-1.83907e-17
-3.06124e-12
-4.31018e-07
-3.00786e-28
-7.51382e-23
-1.83921e-17
-3.06139e-12
-4.31032e-07
-3.00835e-28
-7.51483e-23
-1.83942e-17
-3.06161e-12
-4.31054e-07
-3.00865e-28
-7.51545e-23
-1.83953e-17
-3.06175e-12
-4.31067e-07
-3.00898e-28
-7.51612e-23
-1.83966e-17
-3.06189e-12
-4.3108e-07
-3.00914e-28
-7.51643e-23
-1.83972e-17
-3.06195e-12
-4.31086e-07
-3.00923e-28
-7.51662e-23
-1.83976e-17
-3.062e-12
-4.31089e-07
-3.00923e-28
-7.51662e-23
-1.83976e-17
-3.062e-12
-4.31089e-07
-3.00914e-28
-7.51643e-23
-1.83972e-17
-3.06195e-12
-4.31086e-07
-3.00898e-28
-7.51612e-23
-1.83966e-17
-3.06189e-12
-4.3108e-07
-3.00865e-28
-7.51545e-23
-1.83953e-17
-3.06175e-12
-4.31067e-07
-3.00835e-28
-7.51483e-23
-1.83942e-17
-3.06161e-12
-4.31054e-07
-3.00786e-28
-7.51382e-23
-1.83921e-17
-3.06139e-12
-4.31032e-07
-3.0075e-28
-7.5131e-23
-1.83907e-17
-3.06124e-12
-4.31018e-07
-3.01032e-28
-7.51912e-23
-1.84022e-17
-3.06292e-12
-4.31186e-07
-3.01104e-28
-7.52083e-23
-1.84059e-17
-3.0635e-12
-4.3125e-07
-3.16597e-28
-7.84507e-23
-1.90289e-17
-3.1411e-12
-4.38063e-07
-5.24596e-28
-1.1672e-22
-2.52228e-17
-3.66247e-12
-4.42119e-07
-4.99387e-28
-1.11988e-22
-2.44165e-17
-3.57458e-12
-4.35703e-07
-4.99276e-28
-1.11964e-22
-2.4412e-17
-3.57395e-12
-4.35646e-07
-4.98842e-28
-1.11881e-22
-2.4398e-17
-3.57214e-12
-4.35495e-07
-4.98902e-28
-1.11892e-22
-2.43999e-17
-3.57232e-12
-4.3551e-07
-4.98982e-28
-1.11907e-22
-2.44026e-17
-3.57258e-12
-4.35531e-07
-4.99032e-28
-1.11916e-22
-2.44041e-17
-3.57273e-12
-4.35543e-07
-4.99086e-28
-1.11926e-22
-2.44058e-17
-3.57289e-12
-4.35555e-07
-4.9911e-28
-1.1193e-22
-2.44065e-17
-3.57296e-12
-4.35561e-07
-4.99126e-28
-1.11933e-22
-2.4407e-17
-3.57301e-12
-4.35564e-07
-4.99126e-28
-1.11933e-22
-2.4407e-17
-3.57301e-12
-4.35564e-07
-4.9911e-28
-1.1193e-22
-2.44065e-17
-3.57296e-12
-4.35561e-07
-4.99086e-28
-1.11926e-22
-2.44058e-17
-3.57289e-12
-4.35555e-07
-4.99032e-28
-1.11916e-22
-2.44041e-17
-3.57273e-12
-4.35543e-07
-4.98982e-28
-1.11907e-22
-2.44026e-17
-3.57258e-12
-4.35531e-07
-4.98902e-28
-1.11892e-22
-2.43999e-17
-3.57232e-12
-4.3551e-07
-4.98842e-28
-1.11881e-22
-2.4398e-17
-3.57214e-12
-4.35495e-07
-4.99276e-28
-1.11964e-22
-2.4412e-17
-3.57395e-12
-4.35646e-07
-4.99387e-28
-1.11988e-22
-2.44165e-17
-3.57458e-12
-4.35703e-07
-5.24596e-28
-1.1672e-22
-2.52228e-17
-3.66247e-12
-4.42119e-07
-8.28872e-28
-1.66975e-22
-3.24619e-17
-4.19813e-12
-4.45162e-07
-7.89845e-28
-1.60351e-22
-3.14517e-17
-4.10057e-12
-4.39173e-07
-7.89683e-28
-1.6032e-22
-3.14465e-17
-4.0999e-12
-4.39121e-07
-7.89051e-28
-1.60211e-22
-3.14302e-17
-4.098e-12
-4.38988e-07
-7.89147e-28
-1.60226e-22
-3.14326e-17
-4.09821e-12
-4.39002e-07
-7.89272e-28
-1.60247e-22
-3.1436e-17
-4.0985e-12
-4.39022e-07
-7.8935e-28
-1.6026e-22
-3.14379e-17
-4.09867e-12
-4.39034e-07
-7.89432e-28
-1.60274e-22
-3.144e-17
-4.09885e-12
-4.39045e-07
-7.8947e-28
-1.6028e-22
-3.14409e-17
-4.09893e-12
-4.3905e-07
-7.89495e-28
-1.60284e-22
-3.14415e-17
-4.09898e-12
-4.39053e-07
-7.89495e-28
-1.60284e-22
-3.14415e-17
-4.09898e-12
-4.39053e-07
-7.8947e-28
-1.6028e-22
-3.14409e-17
-4.09893e-12
-4.3905e-07
-7.89432e-28
-1.60274e-22
-3.144e-17
-4.09885e-12
-4.39045e-07
-7.8935e-28
-1.6026e-22
-3.14379e-17
-4.09867e-12
-4.39034e-07
-7.89272e-28
-1.60247e-22
-3.1436e-17
-4.0985e-12
-4.39022e-07
-7.89147e-28
-1.60226e-22
-3.14326e-17
-4.09821e-12
-4.39002e-07
-7.89051e-28
-1.60211e-22
-3.14302e-17
-4.098e-12
-4.38988e-07
-7.89683e-28
-1.6032e-22
-3.14465e-17
-4.0999e-12
-4.39121e-07
-7.89845e-28
-1.60351e-22
-3.14517e-17
-4.10057e-12
-4.39173e-07
-8.28872e-28
-1.66975e-22
-3.24619e-17
-4.19813e-12
-4.45162e-07
-1.25892e-27
-2.3127e-22
-4.07786e-17
-4.74502e-12
-4.4704e-07
-1.20097e-27
-2.22313e-22
-3.95467e-17
-4.63856e-12
-4.41506e-07
-1.20075e-27
-2.22273e-22
-3.95407e-17
-4.63786e-12
-4.4146e-07
-1.19987e-27
-2.22135e-22
-3.95223e-17
-4.63591e-12
-4.41343e-07
-1.20002e-27
-2.22156e-22
-3.95253e-17
-4.63614e-12
-4.41356e-07
-1.2002e-27
-2.22185e-22
-3.95295e-17
-4.63646e-12
-4.41376e-07
-1.20032e-27
-2.22203e-22
-3.95319e-17
-4.63665e-12
-4.41386e-07
-1.20044e-27
-2.22221e-22
-3.95344e-17
-4.63684e-12
-4.41396e-07
-1.2005e-27
-2.22229e-22
-3.95356e-17
-4.63693e-12
-4.41401e-07
-1.20053e-27
-2.22235e-22
-3.95363e-17
-4.63698e-12
-4.41404e-07
-1.20053e-27
-2.22235e-22
-3.95363e-17
-4.63698e-12
-4.41404e-07
-1.2005e-27
-2.22229e-22
-3.95356e-17
-4.63693e-12
-4.41401e-07
-1.20044e-27
-2.22221e-22
-3.95344e-17
-4.63684e-12
-4.41396e-07
-1.20032e-27
-2.22203e-22
-3.95319e-17
-4.63665e-12
-4.41386e-07
-1.2002e-27
-2.22185e-22
-3.95295e-17
-4.63646e-12
-4.41376e-07
-1.20002e-27
-2.22156e-22
-3.95253e-17
-4.63614e-12
-4.41356e-07
-1.19987e-27
-2.22135e-22
-3.95223e-17
-4.63591e-12
-4.41343e-07
-1.20075e-27
-2.22273e-22
-3.95407e-17
-4.63786e-12
-4.4146e-07
-1.20097e-27
-2.22313e-22
-3.95467e-17
-4.63856e-12
-4.41506e-07
-1.25892e-27
-2.3127e-22
-4.07786e-17
-4.74502e-12
-4.4704e-07
-1.84859e-27
-3.11664e-22
-5.0184e-17
-5.29932e-12
-4.47533e-07
-1.76564e-27
-2.99909e-22
-4.87166e-17
-5.18488e-12
-4.42479e-07
-1.76534e-27
-2.9986e-22
-4.87098e-17
-5.18417e-12
-4.42438e-07
-1.76416e-27
-2.9969e-22
-4.86897e-17
-5.18219e-12
-4.42337e-07
-1.76437e-27
-2.99719e-22
-4.86933e-17
-5.18244e-12
-4.4235e-07
-1.76464e-27
-2.99757e-22
-4.86985e-17
-5.18279e-12
-4.42368e-07
-1.76481e-27
-2.9978e-22
-4.87013e-17
-5.183e-12
-4.42378e-07
-1.76498e-27
-2.99804e-22
-4.87043e-17
-5.1832e-12
-4.42387e-07
-1.76506e-27
-2.99815e-22
-4.87056e-17
-5.1833e-12
-4.42391e-07
-1.76511e-27
-2.99822e-22
-4.87065e-17
-5.18336e-12
-4.42394e-07
-1.76511e-27
-2.99822e-22
-4.87065e-17
-5.18336e-12
-4.42394e-07
-1.76506e-27
-2.99815e-22
-4.87056e-17
-5.1833e-12
-4.42391e-07
-1.76498e-27
-2.99804e-22
-4.87043e-17
-5.1832e-12
-4.42387e-07
-1.76481e-27
-2.9978e-22
-4.87013e-17
-5.183e-12
-4.42378e-07
-1.76464e-27
-2.99757e-22
-4.86985e-17
-5.18279e-12
-4.42368e-07
-1.76437e-27
-2.99719e-22
-4.86933e-17
-5.18244e-12
-4.4235e-07
-1.76416e-27
-2.9969e-22
-4.86897e-17
-5.18219e-12
-4.42337e-07
-1.76534e-27
-2.9986e-22
-4.87098e-17
-5.18417e-12
-4.42438e-07
-1.76564e-27
-2.99909e-22
-4.87166e-17
-5.18488e-12
-4.42479e-07
-1.84859e-27
-3.11664e-22
-5.0184e-17
-5.29932e-12
-4.47533e-07
-4.12662e-17
-5.65296e-19
-8.463e-22
3.3736e-23
3.72599e-23
3.73384e-23
3.73632e-23
3.7364e-23
3.73648e-23
3.73655e-23
3.73664e-23
3.73671e-23
3.73749e-23
3.73912e-23
3.75675e-23
3.78047e-23
4.0787e-23
4.3082e-23
1.01044e-22
1.19358e-22
-5.35649e-17
-7.20408e-19
-1.0851e-21
3.36604e-23
3.72593e-23
3.73381e-23
3.7363e-23
3.73638e-23
3.73641e-23
3.73641e-23
3.73641e-23
3.73644e-23
3.73718e-23
3.73881e-23
3.75657e-23
3.78042e-23
4.08035e-23
4.31077e-23
1.01386e-22
1.19761e-22
-5.38484e-17
-7.23536e-19
-1.08944e-21
3.36592e-23
3.72593e-23
3.73381e-23
3.7363e-23
3.73639e-23
3.73641e-23
3.73641e-23
3.73641e-23
3.73645e-23
3.73721e-23
3.73885e-23
3.75661e-23
3.78046e-23
4.08042e-23
4.31085e-23
1.0139e-22
1.19765e-22
-5.45452e-17
-7.31531e-19
-1.10053e-21
3.36562e-23
3.72593e-23
3.73382e-23
3.73631e-23
3.73639e-23
3.73641e-23
3.73641e-23
3.73643e-23
3.7365e-23
3.73728e-23
3.73893e-23
3.75669e-23
3.78055e-23
4.08054e-23
4.311e-23
1.01395e-22
1.19771e-22
-5.45447e-17
-7.31496e-19
-1.10046e-21
3.36562e-23
3.72593e-23
3.73382e-23
3.73631e-23
3.73639e-23
3.73641e-23
3.73641e-23
3.73643e-23
3.73651e-23
3.73729e-23
3.73893e-23
3.7567e-23
3.78055e-23
4.08055e-23
4.311e-23
1.01396e-22
1.19771e-22
-5.45409e-17
-7.31431e-19
-1.10035e-21
3.36562e-23
3.72593e-23
3.73382e-23
3.73631e-23
3.73639e-23
3.73641e-23
3.73641e-23
3.73643e-23
3.73651e-23
3.73729e-23
3.73893e-23
3.7567e-23
3.78055e-23
4.08055e-23
4.311e-23
1.01396e-22
1.19771e-22
-5.45279e-17
-7.31275e-19
-1.10013e-21
3.36563e-23
3.72593e-23
3.73382e-23
3.73631e-23
3.73639e-23
3.73641e-23
3.73641e-23
3.73643e-23
3.73651e-23
3.73729e-23
3.73893e-23
3.7567e-23
3.78055e-23
4.08055e-23
4.311e-23
1.01396e-22
1.19771e-22
-5.45149e-17
-7.31125e-19
-1.09992e-21
3.36564e-23
3.72593e-23
3.73382e-23
3.73631e-23
3.73639e-23
3.73641e-23
3.73641e-23
3.73643e-23
3.73651e-23
3.73729e-23
3.73893e-23
3.7567e-23
3.78055e-23
4.08055e-23
4.311e-23
1.01396e-22
1.19771e-22
-5.45084e-17
-7.31048e-19
-1.09981e-21
3.36564e-23
3.72593e-23
3.73382e-23
3.73631e-23
3.73639e-23
3.73641e-23
3.73641e-23
3.73643e-23
3.73651e-23
3.73729e-23
3.73893e-23
3.7567e-23
3.78055e-23
4.08055e-23
4.311e-23
1.01396e-22
1.19771e-22
-5.45045e-17
-7.31004e-19
-1.09975e-21
3.36564e-23
3.72593e-23
3.73382e-23
3.73631e-23
3.73639e-23
3.73641e-23
3.73641e-23
3.73643e-23
3.73651e-23
3.73729e-23
3.73893e-23
3.7567e-23
3.78055e-23
4.08055e-23
4.311e-23
1.01396e-22
1.19771e-22
-5.45045e-17
-7.31004e-19
-1.09975e-21
3.36564e-23
3.72593e-23
3.73382e-23
3.73631e-23
3.73639e-23
3.73641e-23
3.73641e-23
3.73643e-23
3.73651e-23
3.73729e-23
3.73893e-23
3.7567e-23
3.78055e-23
4.08055e-23
4.311e-23
1.01396e-22
1.19771e-22
-5.45084e-17
-7.31048e-19
-1.09981e-21
3.36564e-23
3.72593e-23
3.73382e-23
3.73631e-23
3.73639e-23
3.73641e-23
3.73641e-23
3.73643e-23
3.73651e-23
3.73729e-23
3.73893e-23
3.7567e-23
3.78055e-23
4.08055e-23
4.311e-23
1.01396e-22
1.19771e-22
-5.45149e-17
-7.31125e-19
-1.09992e-21
3.36564e-23
3.72593e-23
3.73382e-23
3.73631e-23
3.73639e-23
3.73641e-23
3.73641e-23
3.73643e-23
3.73651e-23
3.73729e-23
3.73893e-23
3.7567e-23
3.78055e-23
4.08055e-23
4.311e-23
1.01396e-22
1.19771e-22
-5.45279e-17
-7.31275e-19
-1.10013e-21
3.36563e-23
3.72593e-23
3.73382e-23
3.73631e-23
3.73639e-23
3.73641e-23
3.73641e-23
3.73643e-23
3.73651e-23
3.73729e-23
3.73893e-23
3.7567e-23
3.78055e-23
4.08055e-23
4.311e-23
1.01396e-22
1.19771e-22
-5.45409e-17
-7.31431e-19
-1.10035e-21
3.36562e-23
3.72593e-23
3.73382e-23
3.73631e-23
3.73639e-23
3.73641e-23
3.73641e-23
3.73643e-23
3.73651e-23
3.73729e-23
3.73893e-23
3.7567e-23
3.78055e-23