/*--------------------------------*- C++ -*----------------------------------*\
  =========                 |
  \\      /  F ield         | OpenFOAM: The Open Source CFD Toolbox
   \\    /   O peration     | Website:  https://openfoam.org
    \\  /    A nd           | Version:  8
     \\/     M anipulation  |
\*---------------------------------------------------------------------------*/
FoamFile
{
    version     2.0;
    format      ascii;
    class       volScalarField;
    location    "3.9";
    object      p;
}
// * * * * * * * * * * * * * * * * * * * * * * * * * * * * * * * * * * * * * //

dimensions      [0 2 -2 0 0 0 0];

internalField   nonuniform List<scalar> 
180000
(
0.000900266
0.000839389
0.000877602
0.000747698
0.000816442
0.000885719
0.000825073
0.000863003
0.000734424
0.000802026
0.000884902
0.000824293
0.000862185
0.000733741
0.000801256
0.00088061
0.000820166
0.000857877
0.0007301
0.000797213
0.000880045
0.000819628
0.000857308
0.000729629
0.00079668
0.000878079
0.000817751
0.00085533
0.00072798
0.000794827
0.000877762
0.000817449
0.000855009
0.000727715
0.000794526
0.000876867
0.000816595
0.000854106
0.000726964
0.00079368
0.000876731
0.000816466
0.000853969
0.000726851
0.00079355
0.000876472
0.000816219
0.000853708
0.000726633
0.000793305
0.000876472
0.000816219
0.000853708
0.000726633
0.000793305
0.000876731
0.000816466
0.000853969
0.000726851
0.00079355
0.000876867
0.000816595
0.000854106
0.000726964
0.00079368
0.000877762
0.000817449
0.000855009
0.000727715
0.000794526
0.000878079
0.000817751
0.00085533
0.00072798
0.000794827
0.000880045
0.000819628
0.000857308
0.000729629
0.00079668
0.00088061
0.000820166
0.000857877
0.0007301
0.000797213
0.000884902
0.000824293
0.000862185
0.000733741
0.000801256
0.000885719
0.000825073
0.000863003
0.000734424
0.000802026
0.000900266
0.000839389
0.000877602
0.000747698
0.000816442
0.000734658
0.000706429
0.000725084
0.000656111
0.000695274
0.000728303
0.000699281
0.000718365
0.000648307
0.000687739
0.000727939
0.000698885
0.000717981
0.000647899
0.000687329
0.00072598
0.000696743
0.000715913
0.000645685
0.000685135
0.000725723
0.000696464
0.000715641
0.000645399
0.000684846
0.000724818
0.000695483
0.000714683
0.000644392
0.000683834
0.000724672
0.000695326
0.000714528
0.00064423
0.00068367
0.000724258
0.000694878
0.00071409
0.00064377
0.000683206
0.000724196
0.00069481
0.000714023
0.000643701
0.000683136
0.000724076
0.000694681
0.000713896
0.000643568
0.000683001
0.000724076
0.000694681
0.000713896
0.000643568
0.000683001
0.000724196
0.00069481
0.000714023
0.000643701
0.000683136
0.000724258
0.000694878
0.00071409
0.00064377
0.000683206
0.000724672
0.000695326
0.000714528
0.00064423
0.00068367
0.000724818
0.000695483
0.000714683
0.000644392
0.000683834
0.000725723
0.000696464
0.000715641
0.000645399
0.000684846
0.00072598
0.000696743
0.000715913
0.000645685
0.000685135
0.000727939
0.000698885
0.000717981
0.000647899
0.000687329
0.000728303
0.000699281
0.000718365
0.000648307
0.000687739
0.000734658
0.000706429
0.000725084
0.000656111
0.000695274
0.000527332
0.000504916
0.000520181
0.000466279
0.00049922
0.000522228
0.00049945
0.000514895
0.000460607
0.000493525
0.000521935
0.000499146
0.000514593
0.000460308
0.000493213
0.000520332
0.000497472
0.000512933
0.000458656
0.000491512
0.000520124
0.000497256
0.000512717
0.000458445
0.00049129
0.000519384
0.00049649
0.00051195
0.000457693
0.000490506
0.000519267
0.000496368
0.000511827
0.000457574
0.00049038
0.000518929
0.000496019
0.000511476
0.000457231
0.000490021
0.000518878
0.000495967
0.000511423
0.00045718
0.000489967
0.000518781
0.000495866
0.000511321
0.00045708
0.000489863
0.000518781
0.000495866
0.000511321
0.00045708
0.000489863
0.000518878
0.000495967
0.000511423
0.00045718
0.000489967
0.000518929
0.000496019
0.000511476
0.000457231
0.000490021
0.000519267
0.000496368
0.000511827
0.000457574
0.00049038
0.000519384
0.00049649
0.00051195
0.000457693
0.000490506
0.000520124
0.000497256
0.000512717
0.000458445
0.00049129
0.000520332
0.000497472
0.000512933
0.000458656
0.000491512
0.000521935
0.000499146
0.000514593
0.000460308
0.000493213
0.000522228
0.00049945
0.000514895
0.000460607
0.000493525
0.000527332
0.000504916
0.000520181
0.000466279
0.00049922
0.000492762
0.000466573
0.000484509
0.000423894
0.000463139
0.000486678
0.000460413
0.000478346
0.000417938
0.00045685
0.000486328
0.000460069
0.000477992
0.000417623
0.000456502
0.000484413
0.000458171
0.00047605
0.000415866
0.000454603
0.000484165
0.000457927
0.000475798
0.000415642
0.000454355
0.000483285
0.000457061
0.000474902
0.000414844
0.000453482
0.000483145
0.000456923
0.000474759
0.000414718
0.000453342
0.000482743
0.000456529
0.00047435
0.000414354
0.000452942
0.000482683
0.00045647
0.000474289
0.0004143
0.000452882
0.000482567
0.000456356
0.00047417
0.000414195
0.000452766
0.000482567
0.000456356
0.00047417
0.000414195
0.000452766
0.000482683
0.00045647
0.000474289
0.0004143
0.000452882
0.000482743
0.000456529
0.00047435
0.000414354
0.000452942
0.000483145
0.000456923
0.000474759
0.000414718
0.000453342
0.000483285
0.000457061
0.000474902
0.000414844
0.000453482
0.000484165
0.000457927
0.000475798
0.000415642
0.000454355
0.000484413
0.000458171
0.00047605
0.000415866
0.000454603
0.000486328
0.000460069
0.000477992
0.000417623
0.000456502
0.000486678
0.000460413
0.000478346
0.000417938
0.00045685
0.000492762
0.000466573
0.000484509
0.000423894
0.000463139
0.000515727
0.000488041
0.000507349
0.000442579
0.000487414
0.000509317
0.000481548
0.000500856
0.000436312
0.000480807
0.000508944
0.000481181
0.000500479
0.000435976
0.000480437
0.000506896
0.00047915
0.000498401
0.000434098
0.000478403
0.000506631
0.00047889
0.000498131
0.00043386
0.000478138
0.000505689
0.000477962
0.000497173
0.000433006
0.000477202
0.000505539
0.000477816
0.00049702
0.000432871
0.000477052
0.000505109
0.000477393
0.000496582
0.000432482
0.000476624
0.000505045
0.00047733
0.000496516
0.000432424
0.000476559
0.00050492
0.000477208
0.000496389
0.000432311
0.000476435
0.00050492
0.000477208
0.000496389
0.000432311
0.000476435
0.000505045
0.00047733
0.000496516
0.000432424
0.000476559
0.000505109
0.000477393
0.000496582
0.000432482
0.000476624
0.000505539
0.000477816
0.00049702
0.000432871
0.000477052
0.000505689
0.000477962
0.000497173
0.000433006
0.000477202
0.000506631
0.00047889
0.000498131
0.00043386
0.000478138
0.000506896
0.00047915
0.000498401
0.000434098
0.000478403
0.000508944
0.000481181
0.000500479
0.000435976
0.000480437
0.000509317
0.000481548
0.000500856
0.000436312
0.000480807
0.000515727
0.000488041
0.000507349
0.000442579
0.000487414
0.000528522
0.000501407
0.000520804
0.000456101
0.000504554
0.000522296
0.000495053
0.00051448
0.000449908
0.00049809
0.000521929
0.00049469
0.000514109
0.000449572
0.000497721
0.000519898
0.000492662
0.000512043
0.000447679
0.00049568
0.000519635
0.000492403
0.000511776
0.000447439
0.000495416
0.0005187
0.000491475
0.000510822
0.000446577
0.000494476
0.000518552
0.000491329
0.00051067
0.000446441
0.000494326
0.000518124
0.000490906
0.000510234
0.000446048
0.000493895
0.000518061
0.000490844
0.000510169
0.00044599
0.000493831
0.000517937
0.000490721
0.000510042
0.000445876
0.000493706
0.000517937
0.000490721
0.000510042
0.000445876
0.000493706
0.000518061
0.000490844
0.000510169
0.00044599
0.000493831
0.000518124
0.000490906
0.000510234
0.000446048
0.000493895
0.000518552
0.000491329
0.00051067
0.000446441
0.000494326
0.0005187
0.000491475
0.000510822
0.000446577
0.000494476
0.000519635
0.000492403
0.000511776
0.000447439
0.000495416
0.000519898
0.000492662
0.000512043
0.000447679
0.00049568
0.000521929
0.00049469
0.000514109
0.000449572
0.000497721
0.000522296
0.000495053
0.00051448
0.000449908
0.00049809
0.000528522
0.000501407
0.000520804
0.000456101
0.000504554
0.000528455
0.000502089
0.000521441
0.000457608
0.000509345
0.000522442
0.000495941
0.000515331
0.000451597
0.000503096
0.000522084
0.000495586
0.000514969
0.000451267
0.000502735
0.000520082
0.000493584
0.000512932
0.000449389
0.000500712
0.000519825
0.000493329
0.000512669
0.000449152
0.000500451
0.000518902
0.000492412
0.000511728
0.000448297
0.000499518
0.000518756
0.000492268
0.000511578
0.000448162
0.000499369
0.000518335
0.00049185
0.000511148
0.000447772
0.000498942
0.000518272
0.000491789
0.000511084
0.000447715
0.000498878
0.00051815
0.000491668
0.000510959
0.000447602
0.000498754
0.00051815
0.000491668
0.000510959
0.000447602
0.000498754
0.000518272
0.000491789
0.000511084
0.000447715
0.000498878
0.000518335
0.00049185
0.000511148
0.000447772
0.000498942
0.000518756
0.000492268
0.000511578
0.000448162
0.000499369
0.000518902
0.000492412
0.000511728
0.000448297
0.000499518
0.000519825
0.000493329
0.000512669
0.000449152
0.000500451
0.000520082
0.000493584
0.000512932
0.000449389
0.000500712
0.000522084
0.000495586
0.000514969
0.000451267
0.000502735
0.000522442
0.000495941
0.000515331
0.000451597
0.000503096
0.000528455
0.000502089
0.000521441
0.000457608
0.000509345
0.000525826
0.000499876
0.000519373
0.000455959
0.000511028
0.00051994
0.000493868
0.000513399
0.00045009
0.00050493
0.000519587
0.000493517
0.00051304
0.000449764
0.000504572
0.000517591
0.000491524
0.000511012
0.000447895
0.000502552
0.000517336
0.000491271
0.000510751
0.00044766
0.000502292
0.000516414
0.000490357
0.000509812
0.000446807
0.000501359
0.00051627
0.000490214
0.000509664
0.000446673
0.000501211
0.000515849
0.000489797
0.000509234
0.000446285
0.000500784
0.000515787
0.000489736
0.00050917
0.000446227
0.00050072
0.000515665
0.000489616
0.000509046
0.000446115
0.000500596
0.000515665
0.000489616
0.000509046
0.000446115
0.000500596
0.000515787
0.000489736
0.00050917
0.000446227
0.00050072
0.000515849
0.000489797
0.000509234
0.000446285
0.000500784
0.00051627
0.000490214
0.000509664
0.000446673
0.000501211
0.000516414
0.000490357
0.000509812
0.000446807
0.000501359
0.000517336
0.000491271
0.000510751
0.00044766
0.000502292
0.000517591
0.000491524
0.000511012
0.000447895
0.000502552
0.000519587
0.000493517
0.00051304
0.000449764
0.000504572
0.00051994
0.000493868
0.000513399
0.00045009
0.00050493
0.000525826
0.000499876
0.000519373
0.000455959
0.000511028
0.000524581
0.000498901
0.000518624
0.000455399
0.000513447
0.000518788
0.000492997
0.000512749
0.000449639
0.000507459
0.000518437
0.000492649
0.000512394
0.000449316
0.000507102
0.000516439
0.000490655
0.000510364
0.000447446
0.000505076
0.000516183
0.000490403
0.000510104
0.000447212
0.000504816
0.00051526
0.000489488
0.000509163
0.000446358
0.000503879
0.000515115
0.000489345
0.000509015
0.000446225
0.000503731
0.000514693
0.000488928
0.000508584
0.000445835
0.000503302
0.000514631
0.000488867
0.00050852
0.000445778
0.000503238
0.000514509
0.000488746
0.000508396
0.000445665
0.000503114
0.000514509
0.000488746
0.000508396
0.000445665
0.000503114
0.000514631
0.000488867
0.00050852
0.000445778
0.000503238
0.000514693
0.000488928
0.000508584
0.000445835
0.000503302
0.000515115
0.000489345
0.000509015
0.000446225
0.000503731
0.00051526
0.000489488
0.000509163
0.000446358
0.000503879
0.000516183
0.000490403
0.000510104
0.000447212
0.000504816
0.000516439
0.000490655
0.000510364
0.000447446
0.000505076
0.000518437
0.000492649
0.000512394
0.000449316
0.000507102
0.000518788
0.000492997
0.000512749
0.000449639
0.000507459
0.000524581
0.000498901
0.000518624
0.000455399
0.000513447
0.000524273
0.000498867
0.000518803
0.000455834
0.000516157
0.000518577
0.000493066
0.00051303
0.000450175
0.000510265
0.000518227
0.000492721
0.000512677
0.000449855
0.00050991
0.000516228
0.000490727
0.000510646
0.000447983
0.000507878
0.000515974
0.000490476
0.000510387
0.00044775
0.000507618
0.000515048
0.000489559
0.000509445
0.000446893
0.000506678
0.000514904
0.000489417
0.000509297
0.00044676
0.00050653
0.000514481
0.000488999
0.000508866
0.00044637
0.000506099
0.000514419
0.000488938
0.000508802
0.000446313
0.000506035
0.000514297
0.000488817
0.000508677
0.0004462
0.00050591
0.000514297
0.000488817
0.000508677
0.0004462
0.00050591
0.000514419
0.000488938
0.000508802
0.000446313
0.000506035
0.000514481
0.000488999
0.000508866
0.00044637
0.000506099
0.000514904
0.000489417
0.000509297
0.00044676
0.00050653
0.000515048
0.000489559
0.000509445
0.000446893
0.000506678
0.000515974
0.000490476
0.000510387
0.00044775
0.000507618
0.000516228
0.000490727
0.000510646
0.000447983
0.000507878
0.000518227
0.000492721
0.000512677
0.000449855
0.00050991
0.000518577
0.000493066
0.00051303
0.000450175
0.000510265
0.000524273
0.000498867
0.000518803
0.000455834
0.000516157
0.000524062
0.000498948
0.000519072
0.00045647
0.000518014
0.000518466
0.000493253
0.000513404
0.000450914
0.000512207
0.00051812
0.000492911
0.000513054
0.000450595
0.000511853
0.000516122
0.000490919
0.000511026
0.000448724
0.000509816
0.000515869
0.000490669
0.000510768
0.000448491
0.000509556
0.000514943
0.000489752
0.000509825
0.000447633
0.000508612
0.000514799
0.00048961
0.000509677
0.0004475
0.000508464
0.000514375
0.000489192
0.000509246
0.000447109
0.000508031
0.000514314
0.000489131
0.000509182
0.000447052
0.000507967
0.000514191
0.00048901
0.000509057
0.000446938
0.000507842
0.000514191
0.00048901
0.000509057
0.000446938
0.000507842
0.000514314
0.000489131
0.000509182
0.000447052
0.000507967
0.000514375
0.000489192
0.000509246
0.000447109
0.000508031
0.000514799
0.00048961
0.000509677
0.0004475
0.000508464
0.000514943
0.000489752
0.000509825
0.000447633
0.000508612
0.000515869
0.000490669
0.000510768
0.000448491
0.000509556
0.000516122
0.000490919
0.000511026
0.000448724
0.000509816
0.00051812
0.000492911
0.000513054
0.000450595
0.000511853
0.000518466
0.000493253
0.000513404
0.000450914
0.000512207
0.000524062
0.000498948
0.000519072
0.00045647
0.000518014
0.000523737
0.000498911
0.000519211
0.000457003
0.000516811
0.000518241
0.000493322
0.000513648
0.000451549
0.000511102
0.000517898
0.000492983
0.0005133
0.000451233
0.000510752
0.000515902
0.000490994
0.000511276
0.000449362
0.000508718
0.00051565
0.000490745
0.000511018
0.000449129
0.000508459
0.000514723
0.000489828
0.000510075
0.000448271
0.000507515
0.00051458
0.000489686
0.000509928
0.000448138
0.000507367
0.000514156
0.000489268
0.000509497
0.000447746
0.000506934
0.000514095
0.000489207
0.000509433
0.000447689
0.00050687
0.000513972
0.000489086
0.000509308
0.000447576
0.000506745
0.000513972
0.000489086
0.000509308
0.000447576
0.000506745
0.000514095
0.000489207
0.000509433
0.000447689
0.00050687
0.000514156
0.000489268
0.000509497
0.000447746
0.000506934
0.00051458
0.000489686
0.000509928
0.000448138
0.000507367
0.000514723
0.000489828
0.000510075
0.000448271
0.000507515
0.00051565
0.000490745
0.000511018
0.000449129
0.000508459
0.000515902
0.000490994
0.000511276
0.000449362
0.000508718
0.000517898
0.000492983
0.0005133
0.000451233
0.000510752
0.000518241
0.000493322
0.000513648
0.000451549
0.000511102
0.000523737
0.000498911
0.000519211
0.000457003
0.000516811
0.000523374
0.000498822
0.000519291
0.000457407
0.000514735
0.000517974
0.000493336
0.00051383
0.000452052
0.000509129
0.000517633
0.000492999
0.000513486
0.000451739
0.000508783
0.000515641
0.000491014
0.000511464
0.00044987
0.000506756
0.000515389
0.000490766
0.000511208
0.000449638
0.000506498
0.000514462
0.000489849
0.000510264
0.000448778
0.000505555
0.000514319
0.000489708
0.000510118
0.000448646
0.000505407
0.000513895
0.000489289
0.000509686
0.000448253
0.000504975
0.000513834
0.000489229
0.000509623
0.000448196
0.000504912
0.000513711
0.000489108
0.000509498
0.000448083
0.000504786
0.000513711
0.000489108
0.000509498
0.000448083
0.000504786
0.000513834
0.000489229
0.000509623
0.000448196
0.000504912
0.000513895
0.000489289
0.000509686
0.000448253
0.000504975
0.000514319
0.000489708
0.000510118
0.000448646
0.000505407
0.000514462
0.000489849
0.000510264
0.000448778
0.000505555
0.000515389
0.000490766
0.000511208
0.000449638
0.000506498
0.000515641
0.000491014
0.000511464
0.00044987
0.000506756
0.000517633
0.000492999
0.000513486
0.000451739
0.000508783
0.000517974
0.000493336
0.00051383
0.000452052
0.000509129
0.000523374
0.000498822
0.000519291
0.000457407
0.000514735
0.000523033
0.000498745
0.000519377
0.000457728
0.00051292
0.000517728
0.000493358
0.000514015
0.000452471
0.000507414
0.00051739
0.000493024
0.000513674
0.000452161
0.00050707
0.0005154
0.000491043
0.000511655
0.000450293
0.000505049
0.000515149
0.000490796
0.0005114
0.000450062
0.000504793
0.000514222
0.000489879
0.000510456
0.000449202
0.000503851
0.000514079
0.000489738
0.000510311
0.00044907
0.000503704
0.000513655
0.000489319
0.000509878
0.000448677
0.000503272
0.000513594
0.000489259
0.000509815
0.00044862
0.000503209
0.000513471
0.000489138
0.00050969
0.000448506
0.000503084
0.000513471
0.000489138
0.00050969
0.000448506
0.000503084
0.000513594
0.000489259
0.000509815
0.00044862
0.000503209
0.000513655
0.000489319
0.000509878
0.000448677
0.000503272
0.000514079
0.000489738
0.000510311
0.00044907
0.000503704
0.000514222
0.000489879
0.000510456
0.000449202
0.000503851
0.000515149
0.000490796
0.0005114
0.000450062
0.000504793
0.0005154
0.000491043
0.000511655
0.000450293
0.000505049
0.00051739
0.000493024
0.000513674
0.000452161
0.00050707
0.000517728
0.000493358
0.000514015
0.000452471
0.000507414
0.000523033
0.000498745
0.000519377
0.000457728
0.00051292
0.000522723
0.000498689
0.00051948
0.000457989
0.000511366
0.000517511
0.0004934
0.000514215
0.000452829
0.000505957
0.000517175
0.000493069
0.000513876
0.00045252
0.000505617
0.000515188
0.000491091
0.000511861
0.000450656
0.000503602
0.000514939
0.000490845
0.000511607
0.000450425
0.000503347
0.000514011
0.000489928
0.000510663
0.000449565
0.000502405
0.000513869
0.000489788
0.000510518
0.000449433
0.000502259
0.000513444
0.000489369
0.000510085
0.00044904
0.000501827
0.000513383
0.000489309
0.000510023
0.000448983
0.000501764
0.00051326
0.000489187
0.000509897
0.000448869
0.000501639
0.00051326
0.000489187
0.000509897
0.000448869
0.000501639
0.000513383
0.000489309
0.000510023
0.000448983
0.000501764
0.000513444
0.000489369
0.000510085
0.00044904
0.000501827
0.000513869
0.000489788
0.000510518
0.000449433
0.000502259
0.000514011
0.000489928
0.000510663
0.000449565
0.000502405
0.000514939
0.000490845
0.000511607
0.000450425
0.000503347
0.000515188
0.000491091
0.000511861
0.000450656
0.000503602
0.000517175
0.000493069
0.000513876
0.00045252
0.000505617
0.000517511
0.0004934
0.000514215
0.000452829
0.000505957
0.000522723
0.000498689
0.00051948
0.000457989
0.000511366
0.000522436
0.000498647
0.000519592
0.00045819
0.000509877
0.000517314
0.000493453
0.000514422
0.000453125
0.000504561
0.000516981
0.000493125
0.000514085
0.000452819
0.000504224
0.000514997
0.000491151
0.000512074
0.000450957
0.000502215
0.000514749
0.000490906
0.000511821
0.000450728
0.000501962
0.000513821
0.000489989
0.000510878
0.000449867
0.000501021
0.000513679
0.000489849
0.000510733
0.000449736
0.000500875
0.000513254
0.00048943
0.0005103
0.000449342
0.000500444
0.000513193
0.00048937
0.000510238
0.000449286
0.000500381
0.00051307
0.000489249
0.000510112
0.000449172
0.000500256
0.00051307
0.000489249
0.000510112
0.000449172
0.000500256
0.000513193
0.00048937
0.000510238
0.000449286
0.000500381
0.000513254
0.00048943
0.0005103
0.000449342
0.000500444
0.000513679
0.000489849
0.000510733
0.000449736
0.000500875
0.000513821
0.000489989
0.000510878
0.000449867
0.000501021
0.000514749
0.000490906
0.000511821
0.000450728
0.000501962
0.000514997
0.000491151
0.000512074
0.000450957
0.000502215
0.000516981
0.000493125
0.000514085
0.000452819
0.000504224
0.000517314
0.000493453
0.000514422
0.000453125
0.000504561
0.000522436
0.000498647
0.000519592
0.00045819
0.000509877
0.000522167
0.000498614
0.000519711
0.000458328
0.000508381
0.000517133
0.000493513
0.000514633
0.000453357
0.000503157
0.000516802
0.000493188
0.000514299
0.000453053
0.000502822
0.000514822
0.000491218
0.000512293
0.000451196
0.00050082
0.000514574
0.000490974
0.000512041
0.000450967
0.000500568
0.000513647
0.000490057
0.000511097
0.000450106
0.000499628
0.000513505
0.000489918
0.000510953
0.000449975
0.000499483
0.00051308
0.000489499
0.00051052
0.000449581
0.000499052
0.00051302
0.000489439
0.000510458
0.000449525
0.000498989
0.000512896
0.000489318
0.000510332
0.000449411
0.000498864
0.000512896
0.000489318
0.000510332
0.000449411
0.000498864
0.00051302
0.000489439
0.000510458
0.000449525
0.000498989
0.00051308
0.000489499
0.00051052
0.000449581
0.000499052
0.000513505
0.000489918
0.000510953
0.000449975
0.000499483
0.000513647
0.000490057
0.000511097
0.000450106
0.000499628
0.000514574
0.000490974
0.000512041
0.000450967
0.000500568
0.000514822
0.000491218
0.000512293
0.000451196
0.00050082
0.000516802
0.000493188
0.000514299
0.000453053
0.000502822
0.000517133
0.000493513
0.000514633
0.000453357
0.000503157
0.000522167
0.000498614
0.000519711
0.000458328
0.000508381
0.000521914
0.000498591
0.000519837
0.000458405
0.00050689
0.000516967
0.000493581
0.00051485
0.000453525
0.000501755
0.000516638
0.000493258
0.000514519
0.000453224
0.000501424
0.000514663
0.000491293
0.000512517
0.000451371
0.000499429
0.000514416
0.00049105
0.000512266
0.000451143
0.000499178
0.000513488
0.000490133
0.000511323
0.000450282
0.000498239
0.000513347
0.000489995
0.000511179
0.000450152
0.000498095
0.000512922
0.000489575
0.000510746
0.000449758
0.000497663
0.000512862
0.000489516
0.000510684
0.000449702
0.000497601
0.000512738
0.000489394
0.000510558
0.000449587
0.000497476
0.000512738
0.000489394
0.000510558
0.000449587
0.000497476
0.000512862
0.000489516
0.000510684
0.000449702
0.000497601
0.000512922
0.000489575
0.000510746
0.000449758
0.000497663
0.000513347
0.000489995
0.000511179
0.000450152
0.000498095
0.000513488
0.000490133
0.000511323
0.000450282
0.000498239
0.000514416
0.00049105
0.000512266
0.000451143
0.000499178
0.000514663
0.000491293
0.000512517
0.000451371
0.000499429
0.000516638
0.000493258
0.000514519
0.000453224
0.000501424
0.000516967
0.000493581
0.00051485
0.000453525
0.000501755
0.000521914
0.000498591
0.000519837
0.000458405
0.00050689
0.000521679
0.000498578
0.000519973
0.00045842
0.000505418
0.000516817
0.000493657
0.000515075
0.00045363
0.00050037
0.000516491
0.000493336
0.000514746
0.000453331
0.000500041
0.000514519
0.000491375
0.000512749
0.000451483
0.000498053
0.000514273
0.000491134
0.000512499
0.000451257
0.000497804
0.000513346
0.000490217
0.000511556
0.000450396
0.000496866
0.000513205
0.000490079
0.000511412
0.000450266
0.000496722
0.00051278
0.00048966
0.000510979
0.000449872
0.000496291
0.000512719
0.0004896
0.000510917
0.000449816
0.000496229
0.000512596
0.000489479
0.000510792
0.000449702
0.000496104
0.000512596
0.000489479
0.000510792
0.000449702
0.000496104
0.000512719
0.0004896
0.000510917
0.000449816
0.000496229
0.00051278
0.00048966
0.000510979
0.000449872
0.000496291
0.000513205
0.000490079
0.000511412
0.000450266
0.000496722
0.000513346
0.000490217
0.000511556
0.000450396
0.000496866
0.000514273
0.000491134
0.000512499
0.000451257
0.000497804
0.000514519
0.000491375
0.000512749
0.000451483
0.000498053
0.000516491
0.000493336
0.000514746
0.000453331
0.000500041
0.000516817
0.000493657
0.000515075
0.00045363
0.00050037
0.000521679
0.000498578
0.000519973
0.00045842
0.000505418
0.000521462
0.000498574
0.000520119
0.000458374
0.000503899
0.000516682
0.00049374
0.000515308
0.000453674
0.000498936
0.000516358
0.000493422
0.000514982
0.000453377
0.00049861
0.000514392
0.000491467
0.00051299
0.000451534
0.000496631
0.000514147
0.000491226
0.000512741
0.000451309
0.000496382
0.000513219
0.00049031
0.000511798
0.000450448
0.000495445
0.000513079
0.000490172
0.000511655
0.000450319
0.000495302
0.000512653
0.000489753
0.000511222
0.000449925
0.000494872
0.000512593
0.000489694
0.00051116
0.000449869
0.00049481
0.00051247
0.000489572
0.000511034
0.000449755
0.000494685
0.00051247
0.000489572
0.000511034
0.000449755
0.000494685
0.000512593
0.000489694
0.00051116
0.000449869
0.00049481
0.000512653
0.000489753
0.000511222
0.000449925
0.000494872
0.000513079
0.000490172
0.000511655
0.000450319
0.000495302
0.000513219
0.00049031
0.000511798
0.000450448
0.000495445
0.000514147
0.000491226
0.000512741
0.000451309
0.000496382
0.000514392
0.000491467
0.00051299
0.000451534
0.000496631
0.000516358
0.000493422
0.000514982
0.000453377
0.00049861
0.000516682
0.00049374
0.000515308
0.000453674
0.000498936
0.000521462
0.000498574
0.000520119
0.000458374
0.000503899
-1.62385e-05
1.57664e-05
2.81358e-06
6.96657e-07
2.50977e-07
1.8073e-07
1.65304e-07
1.62497e-07
1.61807e-07
1.61662e-07
1.61615e-07
1.61593e-07
1.61495e-07
1.61386e-07
1.60519e-07
1.59851e-07
1.53415e-07
1.50644e-07
1.11916e-07
1.07812e-07
-1.63067e-05
1.57266e-05
2.82795e-06
7.01642e-07
2.52204e-07
1.81032e-07
1.65356e-07
1.62496e-07
1.61791e-07
1.61642e-07
1.61593e-07
1.61571e-07
1.61471e-07
1.61359e-07
1.60478e-07
1.59803e-07
1.53295e-07
1.50518e-07
1.11616e-07
1.076e-07
-1.63003e-05
1.57165e-05
2.82479e-06
7.01211e-07
2.52119e-07
1.81022e-07
1.65354e-07
1.62496e-07
1.6179e-07
1.61642e-07
1.61593e-07
1.61571e-07
1.61471e-07
1.61359e-07
1.60477e-07
1.59802e-07
1.53293e-07
1.50516e-07
1.11613e-07
1.07598e-07
-1.62706e-05
1.56641e-05
2.80858e-06
6.99045e-07
2.51698e-07
1.80967e-07
1.65342e-07
1.62493e-07
1.61789e-07
1.61641e-07
1.61592e-07
1.61569e-07
1.61469e-07
1.61357e-07
1.60475e-07
1.59799e-07
1.53286e-07
1.50509e-07
1.11601e-07
1.07592e-07
-1.62653e-05
1.56562e-05
2.8058e-06
6.9861e-07
2.516e-07
1.8095e-07
1.65338e-07
1.62493e-07
1.61789e-07
1.61641e-07
1.61592e-07
1.61569e-07
1.61469e-07
1.61357e-07
1.60475e-07
1.59799e-07
1.53286e-07
1.50509e-07
1.11601e-07
1.07591e-07
-1.62486e-05
1.56309e-05
2.79712e-06
6.97311e-07
2.51314e-07
1.80904e-07
1.65327e-07
1.62491e-07
1.61788e-07
1.6164e-07
1.61592e-07
1.61569e-07
1.61469e-07
1.61357e-07
1.60474e-07
1.59798e-07
1.53286e-07
1.50509e-07
1.11601e-07
1.07591e-07
-1.62456e-05
1.56265e-05
2.79555e-06
6.97062e-07
2.51257e-07
1.80894e-07
1.65325e-07
1.6249e-07
1.61788e-07
1.6164e-07
1.61592e-07
1.61569e-07
1.61469e-07
1.61357e-07
1.60474e-07
1.59798e-07
1.53286e-07
1.50509e-07
1.11601e-07
1.07591e-07
-1.62379e-05
1.5615e-05
2.79158e-06
6.96462e-07
2.51123e-07
1.80872e-07
1.6532e-07
1.62489e-07
1.61788e-07
1.6164e-07
1.61592e-07
1.61569e-07
1.61469e-07
1.61357e-07
1.60474e-07
1.59798e-07
1.53286e-07
1.50509e-07
1.11601e-07
1.07591e-07
-1.62366e-05
1.56131e-05
2.79091e-06
6.96356e-07
2.51098e-07
1.80868e-07
1.65319e-07
1.62489e-07
1.61788e-07
1.6164e-07
1.61592e-07
1.61569e-07
1.61469e-07
1.61357e-07
1.60474e-07
1.59798e-07
1.53286e-07
1.50509e-07
1.11601e-07
1.07591e-07
-1.62343e-05
1.56097e-05
2.78977e-06
6.96183e-07
2.5106e-07
1.80861e-07
1.65317e-07
1.62489e-07
1.61788e-07
1.6164e-07
1.61592e-07
1.61569e-07
1.61469e-07
1.61357e-07
1.60474e-07
1.59798e-07
1.53286e-07
1.50509e-07
1.11601e-07
1.07591e-07
-1.62343e-05
1.56097e-05
2.78977e-06
6.96183e-07
2.5106e-07
1.80861e-07
1.65317e-07
1.62489e-07
1.61788e-07
1.6164e-07
1.61592e-07
1.61569e-07
1.61469e-07
1.61357e-07
1.60474e-07
1.59798e-07
1.53286e-07
1.50509e-07
1.11601e-07
1.07591e-07
-1.62366e-05
1.56131e-05
2.79091e-06
6.96356e-07
2.51098e-07
1.80868e-07
1.65319e-07
1.62489e-07
1.61788e-07
1.6164e-07
1.61592e-07
1.61569e-07
1.61469e-07
1.61357e-07
1.60474e-07
1.59798e-07
1.53286e-07
1.50509e-07
1.11601e-07
1.07591e-07
-1.62379e-05
1.5615e-05
2.79158e-06
6.96462e-07
2.51123e-07
1.80872e-07
1.6532e-07
1.62489e-07
1.61788e-07
1.6164e-07
1.61592e-07
1.61569e-07
1.61469e-07
1.61357e-07
1.60474e-07
1.59798e-07
1.53286e-07
1.50509e-07
1.11601e-07
1.07591e-07
-1.62456e-05
1.56265e-05
2.79555e-06
6.97062e-07
2.51257e-07
1.80894e-07
1.65325e-07
1.6249e-07
1.61788e-07
1.6164e-07
1.61592e-07
1.61569e-07
1.61469e-07
1.61357e-07
1.60474e-07
1.59798e-07
1.53286e-07
1.50509e-07
1.11601e-07
1.07591e-07
-1.62486e-05
1.56309e-05
2.79712e-06
6.97311e-07
2.51314e-07
1.80904e-07
1.65327e-07
1.62491e-07
1.61788e-07
1.6164e-07
1.61592e-07
1.61569e-07
1.61469e-07
1.61357e-07
1.60474e-07
1.59798e-07
1.53286e-07
1.50509e-07
1.11601e-07
1.07591e-07
-1.62653e-05
1.56562e-05
2.8058e-06
6.9861e-07
2.516e-07
1.8095e-07
1.65338e-07
1.62493e-07
1.61789e-07
1.61641e-07
1.61592e-07
1.61569e-07
1.61469e-07
1.61357e-07
1.60475e-07
1.59799e-07
1.53286e-07
1.50509e-07
1.11601e-07
1.07591e-07
-1.62706e-05
1.56641e-05
2.80858e-06
6.99045e-07
2.51698e-07
1.80967e-07
1.65342e-07
1.62493e-07
1.61789e-07
1.61641e-07
1.61592e-07
1.61569e-07
1.61469e-07
1.61357e-07
1.60475e-07
1.59799e-07
1.53286e-07
1.50509e-07
1.11601e-07
1.07592e-07
-1.63003e-05
1.57165e-05
2.82479e-06
7.01211e-07
2.52119e-07
1.81022e-07
1.65354e-07
1.62496e-07
1.6179e-07
1.61642e-07
1.61593e-07
1.61571e-07
1.61471e-07
1.61359e-07
1.60477e-07
1.59802e-07
1.53293e-07
1.50516e-07
1.11613e-07
1.07598e-07
-1.63067e-05
1.57266e-05
2.82795e-06
7.01642e-07
2.52204e-07
1.81032e-07
1.65356e-07
1.62496e-07
1.61791e-07
1.61642e-07
1.61593e-07
1.61571e-07
1.61471e-07
1.61359e-07
1.60478e-07
1.59803e-07
1.53295e-07
1.50518e-07
1.11616e-07
1.076e-07
-1.62385e-05
1.57664e-05
2.81358e-06
6.96657e-07
2.50977e-07
1.8073e-07
1.65304e-07
1.62497e-07
1.61807e-07
1.61662e-07
1.61615e-07
1.61593e-07
1.61495e-07
1.61386e-07
1.60519e-07
1.59851e-07
1.53415e-07
1.50644e-07
1.11916e-07
1.07812e-07
-1.58537e-05
1.59366e-05
2.83894e-06
7.02074e-07
2.51924e-07
1.80951e-07
1.65329e-07
1.62592e-07
1.61898e-07
1.61751e-07
1.61703e-07
1.61681e-07
1.61582e-07
1.6147e-07
1.60564e-07
1.59833e-07
1.53333e-07
1.50537e-07
1.11321e-07
1.07188e-07
-1.59169e-05
1.58968e-05
2.85347e-06
7.07115e-07
2.53166e-07
1.81256e-07
1.65383e-07
1.6259e-07
1.61882e-07
1.61731e-07
1.61681e-07
1.61659e-07
1.61557e-07
1.61444e-07
1.60522e-07
1.59784e-07
1.53212e-07
1.50409e-07
1.11017e-07
1.06972e-07
-1.59104e-05
1.58865e-05
2.85028e-06
7.0668e-07
2.5308e-07
1.81245e-07
1.65381e-07
1.62589e-07
1.61882e-07
1.61731e-07
1.61681e-07
1.61659e-07
1.61557e-07
1.61444e-07
1.60521e-07
1.59783e-07
1.5321e-07
1.50407e-07
1.11014e-07
1.0697e-07
-1.58799e-05
1.58335e-05
2.83392e-06
7.04493e-07