/*--------------------------------*- C++ -*----------------------------------*\
  =========                 |
  \\      /  F ield         | OpenFOAM: The Open Source CFD Toolbox
   \\    /   O peration     | Website:  https://openfoam.org
    \\  /    A nd           | Version:  8
     \\/     M anipulation  |
\*---------------------------------------------------------------------------*/
FoamFile
{
    version     2.0;
    format      ascii;
    class       volScalarField;
    location    "3.9";
    object      S1;
}
// * * * * * * * * * * * * * * * * * * * * * * * * * * * * * * * * * * * * * //

dimensions      [0 1 -1 0 0 0 0];

internalField   nonuniform List<scalar> 
180000
(
2.20804e-26
1.58257e-21
5.07307e-17
1.17566e-12
2.15682e-08
3.76367e-26
1.98038e-21
5.93237e-17
1.32977e-12
2.38649e-08
3.77998e-26
1.98495e-21
5.94201e-17
1.33131e-12
2.38829e-08
3.82151e-26
1.9971e-21
5.96809e-17
1.33555e-12
2.39324e-08
3.8122e-26
1.99479e-21
5.96275e-17
1.33445e-12
2.39125e-08
3.78292e-26
1.9876e-21
5.94643e-17
1.33119e-12
2.3855e-08
3.77757e-26
1.98624e-21
5.94329e-17
1.33055e-12
2.38436e-08
3.7643e-26
1.98291e-21
5.93565e-17
1.32903e-12
2.38166e-08
3.76227e-26
1.98239e-21
5.93444e-17
1.32878e-12
2.38121e-08
3.75881e-26
1.98151e-21
5.93241e-17
1.32837e-12
2.38048e-08
3.75881e-26
1.98151e-21
5.93241e-17
1.32837e-12
2.38048e-08
3.76227e-26
1.98239e-21
5.93444e-17
1.32878e-12
2.38121e-08
3.7643e-26
1.98291e-21
5.93565e-17
1.32903e-12
2.38166e-08
3.77757e-26
1.98624e-21
5.94329e-17
1.33055e-12
2.38436e-08
3.78292e-26
1.9876e-21
5.94643e-17
1.33119e-12
2.3855e-08
3.8122e-26
1.99479e-21
5.96275e-17
1.33445e-12
2.39125e-08
3.82152e-26
1.9971e-21
5.96809e-17
1.33555e-12
2.39324e-08
3.77998e-26
1.98495e-21
5.94201e-17
1.33131e-12
2.38829e-08
3.76367e-26
1.98038e-21
5.93237e-17
1.32977e-12
2.38649e-08
2.20804e-26
1.58257e-21
5.07307e-17
1.17566e-12
2.15682e-08
2.20792e-26
1.5825e-21
5.07278e-17
1.17715e-12
2.42589e-08
3.76353e-26
1.9803e-21
5.93202e-17
1.33131e-12
2.6697e-08
3.77984e-26
1.98487e-21
5.94166e-17
1.33285e-12
2.67139e-08
3.82138e-26
1.99702e-21
5.96775e-17
1.33709e-12
2.67574e-08
3.81206e-26
1.99471e-21
5.9624e-17
1.33599e-12
2.67345e-08
3.78279e-26
1.98752e-21
5.94609e-17
1.33272e-12
2.6668e-08
3.77744e-26
1.98616e-21
5.94295e-17
1.33208e-12
2.66549e-08
3.76416e-26
1.98283e-21
5.93531e-17
1.33055e-12
2.66237e-08
3.76213e-26
1.98231e-21
5.9341e-17
1.3303e-12
2.66185e-08
3.75867e-26
1.98143e-21
5.93207e-17
1.32989e-12
2.661e-08
3.75867e-26
1.98143e-21
5.93207e-17
1.32989e-12
2.661e-08
3.76213e-26
1.98231e-21
5.9341e-17
1.3303e-12
2.66185e-08
3.76416e-26
1.98283e-21
5.93531e-17
1.33055e-12
2.66237e-08
3.77744e-26
1.98616e-21
5.94295e-17
1.33208e-12
2.66549e-08
3.78278e-26
1.98752e-21
5.94609e-17
1.33272e-12
2.6668e-08
3.81206e-26
1.99471e-21
5.96241e-17
1.33599e-12
2.67345e-08
3.82138e-26
1.99702e-21
5.96775e-17
1.33709e-12
2.67574e-08
3.77984e-26
1.98487e-21
5.94166e-17
1.33285e-12
2.67139e-08
3.76353e-26
1.9803e-21
5.93203e-17
1.33131e-12
2.6697e-08
2.20792e-26
1.5825e-21
5.07278e-17
1.17715e-12
2.42589e-08
2.20782e-26
1.5824e-21
5.07288e-17
1.18726e-12
3.92859e-08
3.7634e-26
1.98017e-21
5.93204e-17
1.34171e-12
4.22638e-08
3.77972e-26
1.98474e-21
5.94168e-17
1.34325e-12
4.2275e-08
3.82126e-26
1.99689e-21
5.96776e-17
1.34744e-12
4.22934e-08
3.81194e-26
1.99458e-21
5.96242e-17
1.34633e-12
4.22585e-08
3.78267e-26
1.98739e-21
5.9461e-17
1.34303e-12
4.21556e-08
3.77732e-26
1.98604e-21
5.94296e-17
1.34238e-12
4.21356e-08
3.76405e-26
1.9827e-21
5.93532e-17
1.34083e-12
4.20873e-08
3.76201e-26
1.98218e-21
5.93411e-17
1.34058e-12
4.20793e-08
3.75855e-26
1.9813e-21
5.93208e-17
1.34017e-12
4.20659e-08
3.75855e-26
1.9813e-21
5.93208e-17
1.34017e-12
4.20659e-08
3.76201e-26
1.98218e-21
5.93411e-17
1.34058e-12
4.20793e-08
3.76405e-26
1.9827e-21
5.93532e-17
1.34083e-12
4.20873e-08
3.77732e-26
1.98604e-21
5.94296e-17
1.34238e-12
4.21357e-08
3.78267e-26
1.98739e-21
5.9461e-17
1.34303e-12
4.21556e-08
3.81194e-26
1.99458e-21
5.96242e-17
1.34633e-12
4.22585e-08
3.82126e-26
1.99689e-21
5.96776e-17
1.34744e-12
4.22934e-08
3.77972e-26
1.98474e-21
5.94168e-17
1.34325e-12
4.2275e-08
3.7634e-26
1.98017e-21
5.93204e-17
1.34171e-12
4.22638e-08
2.20782e-26
1.5824e-21
5.07288e-17
1.18726e-12
3.92859e-08
2.20772e-26
1.58225e-21
5.07483e-17
1.22041e-12
7.93249e-08
3.76326e-26
1.97998e-21
5.93388e-17
1.37548e-12
8.3204e-08
3.77959e-26
1.98455e-21
5.94353e-17
1.37699e-12
8.32033e-08
3.82113e-26
1.9967e-21
5.96959e-17
1.38107e-12
8.31774e-08
3.81181e-26
1.99439e-21
5.96425e-17
1.37993e-12
8.31205e-08
3.78254e-26
1.9872e-21
5.94792e-17
1.37653e-12
8.29528e-08
3.77719e-26
1.98584e-21
5.94478e-17
1.37587e-12
8.29201e-08
3.76392e-26
1.98251e-21
5.93714e-17
1.37428e-12
8.28407e-08
3.76188e-26
1.98199e-21
5.93593e-17
1.37402e-12
8.28274e-08
3.75842e-26
1.98111e-21
5.9339e-17
1.37359e-12
8.28051e-08
3.75842e-26
1.98111e-21
5.9339e-17
1.37359e-12
8.28051e-08
3.76188e-26
1.98199e-21
5.93593e-17
1.37402e-12
8.28274e-08
3.76392e-26
1.98251e-21
5.93714e-17
1.37428e-12
8.28407e-08
3.77719e-26
1.98584e-21
5.94478e-17
1.37587e-12
8.29201e-08
3.78254e-26
1.9872e-21
5.94792e-17
1.37653e-12
8.29528e-08
3.81181e-26
1.99439e-21
5.96425e-17
1.37993e-12
8.31205e-08
3.82113e-26
1.9967e-21
5.96959e-17
1.38107e-12
8.31774e-08
3.7796e-26
1.98455e-21
5.94353e-17
1.37699e-12
8.32033e-08
3.76326e-26
1.97998e-21
5.93388e-17
1.37548e-12
8.3204e-08
2.20772e-26
1.58225e-21
5.07483e-17
1.22041e-12
7.93249e-08
2.2076e-26
1.58207e-21
5.08122e-17
1.29508e-12
1.5129e-07
3.7631e-26
1.97974e-21
5.94013e-17
1.45096e-12
1.56088e-07
3.77945e-26
1.98431e-21
5.94977e-17
1.45242e-12
1.56069e-07
3.82099e-26
1.99646e-21
5.9758e-17
1.45626e-12
1.55979e-07
3.81167e-26
1.99415e-21
5.97044e-17
1.45506e-12
1.55894e-07
3.7824e-26
1.98696e-21
5.9541e-17
1.45148e-12
1.55645e-07
3.77705e-26
1.98561e-21
5.95095e-17
1.45078e-12
1.55596e-07
3.76378e-26
1.98227e-21
5.9433e-17
1.44911e-12
1.55477e-07
3.76174e-26
1.98175e-21
5.94209e-17
1.44883e-12
1.55457e-07
3.75828e-26
1.98088e-21
5.94005e-17
1.44838e-12
1.55423e-07
3.75828e-26
1.98088e-21
5.94005e-17
1.44838e-12
1.55423e-07
3.76174e-26
1.98175e-21
5.94209e-17
1.44883e-12
1.55457e-07
3.76378e-26
1.98227e-21
5.9433e-17
1.44911e-12
1.55477e-07
3.77705e-26
1.98561e-21
5.95095e-17
1.45078e-12
1.55596e-07
3.7824e-26
1.98696e-21
5.9541e-17
1.45148e-12
1.55645e-07
3.81167e-26
1.99415e-21
5.97044e-17
1.45506e-12
1.55894e-07
3.82099e-26
1.99646e-21
5.9758e-17
1.45626e-12
1.55979e-07
3.77945e-26
1.98431e-21
5.94977e-17
1.45242e-12
1.56069e-07
3.7631e-26
1.97974e-21
5.94013e-17
1.45096e-12
1.56088e-07
2.2076e-26
1.58207e-21
5.08122e-17
1.29508e-12
1.5129e-07
2.20747e-26
1.58193e-21
5.09586e-17
1.43063e-12
2.56653e-07
3.76292e-26
1.97952e-21
5.95455e-17
1.5872e-12
2.6211e-07
3.7793e-26
1.9841e-21
5.96419e-17
1.58857e-12
2.62062e-07
3.82083e-26
1.99624e-21
5.99012e-17
1.59198e-12
2.61869e-07
3.81152e-26
1.99393e-21
5.98475e-17
1.59069e-12
2.6175e-07
3.78225e-26
1.98675e-21
5.96835e-17
1.58682e-12
2.61404e-07
3.7769e-26
1.98539e-21
5.9652e-17
1.58607e-12
2.61335e-07
3.76362e-26
1.98206e-21
5.95752e-17
1.58425e-12
2.6117e-07
3.76159e-26
1.98154e-21
5.95631e-17
1.58396e-12
2.61141e-07
3.75813e-26
1.98066e-21
5.95426e-17
1.58346e-12
2.61094e-07
3.75813e-26
1.98066e-21
5.95426e-17
1.58346e-12
2.61094e-07
3.76159e-26
1.98154e-21
5.95631e-17
1.58396e-12
2.61141e-07
3.76362e-26
1.98206e-21
5.95752e-17
1.58425e-12
2.6117e-07
3.7769e-26
1.98539e-21
5.9652e-17
1.58607e-12
2.61335e-07
3.78224e-26
1.98675e-21
5.96835e-17
1.58681e-12
2.61404e-07
3.81152e-26
1.99393e-21
5.98475e-17
1.59069e-12
2.6175e-07
3.82083e-26
1.99624e-21
5.99012e-17
1.59198e-12
2.61869e-07
3.7793e-26
1.9841e-21
5.96419e-17
1.58857e-12
2.62062e-07
3.76292e-26
1.97952e-21
5.95455e-17
1.5872e-12
2.6211e-07
2.20747e-26
1.58193e-21
5.09586e-17
1.43063e-12
2.56653e-07
2.20735e-26
1.58191e-21
5.12382e-17
1.64653e-12
3.95499e-07
3.76274e-26
1.9794e-21
5.98212e-17
1.80327e-12
4.01216e-07
3.77915e-26
1.98399e-21
5.99174e-17
1.8045e-12
4.01126e-07
3.82068e-26
1.99613e-21
6.01749e-17
1.80721e-12
4.0076e-07
3.81136e-26
1.99382e-21
6.01209e-17
1.80578e-12
4.00601e-07
3.78209e-26
1.98663e-21
5.99561e-17
1.80146e-12
4.00131e-07
3.77674e-26
1.98528e-21
5.99244e-17
1.80063e-12
4.00039e-07
3.76347e-26
1.98194e-21
5.98472e-17
1.79861e-12
3.99815e-07
3.76144e-26
1.98142e-21
5.98349e-17
1.79828e-12
3.99776e-07
3.75798e-26
1.98055e-21
5.98144e-17
1.79773e-12
3.99712e-07
3.75798e-26
1.98055e-21
5.98144e-17
1.79773e-12
3.99712e-07
3.76144e-26
1.98142e-21
5.98349e-17
1.79828e-12
3.99776e-07
3.76347e-26
1.98194e-21
5.98472e-17
1.79861e-12
3.99815e-07
3.77674e-26
1.98528e-21
5.99244e-17
1.80063e-12
4.00039e-07
3.78209e-26
1.98663e-21
5.99561e-17
1.80146e-12
4.00131e-07
3.81136e-26
1.99382e-21
6.01209e-17
1.80578e-12
4.00601e-07
3.82068e-26
1.99613e-21
6.01749e-17
1.80721e-12
4.0076e-07
3.77915e-26
1.98399e-21
5.99174e-17
1.8045e-12
4.01126e-07
3.76274e-26
1.9794e-21
5.98212e-17
1.80327e-12
4.01216e-07
2.20735e-26
1.58191e-21
5.12381e-17
1.64653e-12
3.95499e-07
2.20725e-26
1.58213e-21
5.17138e-17
1.96243e-12
5.68137e-07
3.76255e-26
1.97951e-21
6.02901e-17
2.11838e-12
5.73608e-07
3.779e-26
1.9841e-21
6.03859e-17
2.1194e-12
5.73459e-07
3.82053e-26
1.99623e-21
6.06405e-17
2.12103e-12
5.7282e-07
3.81122e-26
1.99392e-21
6.0586e-17
2.11941e-12
5.7261e-07
3.78194e-26
1.98674e-21
6.04196e-17
2.11446e-12
5.71979e-07
3.77659e-26
1.98538e-21
6.03877e-17
2.11352e-12
5.71857e-07
3.76332e-26
1.98205e-21
6.03098e-17
2.11121e-12
5.71558e-07
3.76129e-26
1.98153e-21
6.02974e-17
2.11083e-12
5.71507e-07
3.75783e-26
1.98065e-21
6.02767e-17
2.11019e-12
5.71421e-07
3.75783e-26
1.98065e-21
6.02767e-17
2.11019e-12
5.71421e-07
3.76129e-26
1.98153e-21
6.02974e-17
2.11083e-12
5.71507e-07
3.76332e-26
1.98205e-21
6.03098e-17
2.11121e-12
5.71558e-07
3.77659e-26
1.98538e-21
6.03877e-17
2.11352e-12
5.71857e-07
3.78194e-26
1.98674e-21
6.04196e-17
2.11446e-12
5.71979e-07
3.81122e-26
1.99392e-21
6.0586e-17
2.11941e-12
5.7261e-07
3.82053e-26
1.99623e-21
6.06405e-17
2.12103e-12
5.7282e-07
3.779e-26
1.9841e-21
6.03859e-17
2.1194e-12
5.73459e-07
3.76255e-26
1.97951e-21
6.02901e-17
2.11838e-12
5.73608e-07
2.20725e-26
1.58213e-21
5.17138e-17
1.96243e-12
5.68137e-07
2.20718e-26
1.58277e-21
5.2461e-17
2.39819e-12
7.74792e-07
3.76241e-26
1.98e-21
6.1026e-17
2.55183e-12
7.79373e-07
3.77889e-26
1.9846e-21
6.11212e-17
2.55255e-12
7.79146e-07
3.82042e-26
1.99672e-21
6.13711e-17
2.55263e-12
7.78104e-07
3.8111e-26
1.99441e-21
6.13159e-17
2.55075e-12
7.77831e-07
3.78183e-26
1.98723e-21
6.11471e-17
2.54493e-12
7.7699e-07
3.77648e-26
1.98587e-21
6.11147e-17
2.54384e-12
7.76833e-07
3.76321e-26
1.98254e-21
6.10357e-17
2.54112e-12
7.76436e-07
3.76118e-26
1.98202e-21
6.10231e-17
2.54069e-12
7.7637e-07
3.75772e-26
1.98114e-21
6.10021e-17
2.53993e-12
7.76255e-07
3.75772e-26
1.98114e-21
6.10021e-17
2.53993e-12
7.76255e-07
3.76118e-26
1.98202e-21
6.10231e-17
2.54069e-12
7.7637e-07
3.76321e-26
1.98254e-21
6.10357e-17
2.54112e-12
7.76436e-07
3.77648e-26
1.98587e-21
6.11147e-17
2.54384e-12
7.76833e-07
3.78183e-26
1.98723e-21
6.11471e-17
2.54493e-12
7.7699e-07
3.8111e-26
1.99441e-21
6.13159e-17
2.55075e-12
7.77831e-07
3.82042e-26
1.99672e-21
6.13711e-17
2.55263e-12
7.78104e-07
3.77889e-26
1.9846e-21
6.11212e-17
2.55255e-12
7.79146e-07
3.76241e-26
1.98e-21
6.1026e-17
2.55183e-12
7.79373e-07
2.20718e-26
1.58277e-21
5.2461e-17
2.39819e-12
7.74792e-07
2.20721e-26
1.58404e-21
5.35674e-17
2.97323e-12
1.01468e-06
3.76233e-26
1.9811e-21
6.21144e-17
3.12239e-12
1.01754e-06
3.77886e-26
1.98571e-21
6.22085e-17
3.1227e-12
1.01721e-06
3.82038e-26
1.99781e-21
6.24514e-17
3.1206e-12
1.01561e-06
3.81107e-26
1.9955e-21
6.23952e-17
3.11838e-12
1.01527e-06
3.78179e-26
1.98831e-21
6.22227e-17
3.11141e-12
1.01415e-06
3.77645e-26
1.98695e-21
6.21897e-17
3.11013e-12
1.01395e-06
3.76318e-26
1.98362e-21
6.21091e-17
3.10688e-12
1.01343e-06
3.76114e-26
1.9831e-21
6.20963e-17
3.10636e-12
1.01335e-06
3.75768e-26
1.98222e-21
6.20748e-17
3.10545e-12
1.0132e-06
3.75768e-26
1.98222e-21
6.20748e-17
3.10545e-12
1.0132e-06
3.76114e-26
1.9831e-21
6.20963e-17
3.10636e-12
1.01335e-06
3.76318e-26
1.98362e-21
6.21091e-17
3.10688e-12
1.01343e-06
3.77645e-26
1.98695e-21
6.21897e-17
3.11013e-12
1.01395e-06
3.78179e-26
1.98831e-21
6.22227e-17
3.11141e-12
1.01415e-06
3.81107e-26
1.9955e-21
6.23952e-17
3.11838e-12
1.01527e-06
3.82038e-26
1.99781e-21
6.24514e-17
3.1206e-12
1.01561e-06
3.77886e-26
1.98571e-21
6.22085e-17
3.1227e-12
1.01721e-06
3.76233e-26
1.9811e-21
6.21144e-17
3.12239e-12
1.01754e-06
2.20721e-26
1.58404e-21
5.35674e-17
2.97323e-12
1.01468e-06
2.20737e-26
1.58616e-21
5.5032e-17
3.54677e-12
1.01229e-06
3.76237e-26
1.98302e-21
6.35542e-17
3.69146e-12
1.01521e-06
3.77895e-26
1.98763e-21
6.36468e-17
3.69136e-12
1.01488e-06
3.82047e-26
1.99971e-21
6.38803e-17
3.68711e-12
1.0133e-06
3.81115e-26
1.9974e-21
6.38228e-17
3.68455e-12
1.01296e-06
3.78188e-26
1.9902e-21
6.36456e-17
3.67643e-12
1.01186e-06
3.77653e-26
1.98884e-21
6.36118e-17
3.67495e-12
1.01166e-06
3.76326e-26
1.9855e-21
6.3529e-17
3.67117e-12
1.01115e-06
3.76123e-26
1.98498e-21
6.35159e-17
3.67057e-12
1.01106e-06
3.75777e-26
1.9841e-21
6.34937e-17
3.66951e-12
1.01091e-06
3.75777e-26
1.9841e-21
6.34937e-17
3.66951e-12
1.01091e-06
3.76123e-26
1.98498e-21
6.35159e-17
3.67057e-12
1.01106e-06
3.76326e-26
1.9855e-21
6.3529e-17
3.67117e-12
1.01115e-06
3.77653e-26
1.98884e-21
6.36118e-17
3.67495e-12
1.01166e-06
3.78188e-26
1.9902e-21
6.36456e-17
3.67643e-12
1.01186e-06
3.81115e-26
1.9974e-21
6.38228e-17
3.68455e-12
1.01296e-06
3.82047e-26
1.99971e-21
6.38803e-17
3.68711e-12
1.0133e-06
3.77895e-26
1.98763e-21
6.36468e-17
3.69136e-12
1.01488e-06
3.76237e-26
1.98302e-21
6.35542e-17
3.69146e-12
1.01521e-06
2.20737e-26
1.58616e-21
5.5032e-17
3.54677e-12
1.01229e-06
2.20775e-26
1.58936e-21
5.68537e-17
4.11881e-12
1.00999e-06
3.7626e-26
1.98597e-21
6.53443e-17
4.25901e-12
1.01295e-06
3.77924e-26
1.99059e-21
6.5435e-17
4.25851e-12
1.01262e-06
3.82075e-26
2.00264e-21
6.56569e-17
4.25213e-12
1.01107e-06
3.81143e-26
2.00032e-21
6.55976e-17
4.24923e-12
1.01072e-06
3.78216e-26
1.99311e-21
6.54146e-17
4.23997e-12
1.00964e-06
3.77681e-26
1.99175e-21
6.53799e-17
4.23831e-12
1.00944e-06
3.76354e-26
1.9884e-21
6.52943e-17
4.234e-12
1.00893e-06
3.7615e-26
1.98788e-21
6.52808e-17
4.23331e-12
1.00885e-06
3.75804e-26
1.987e-21
6.52578e-17
4.2321e-12
1.0087e-06
3.75804e-26
1.987e-21
6.52578e-17
4.2321e-12
1.0087e-06
3.7615e-26
1.98788e-21
6.52808e-17
4.23331e-12
1.00885e-06
3.76354e-26
1.9884e-21
6.52943e-17
4.234e-12
1.00893e-06
3.77681e-26
1.99175e-21
6.53799e-17
4.23831e-12
1.00944e-06
3.78216e-26
1.99311e-21
6.54146e-17
4.23997e-12
1.00964e-06
3.81143e-26
2.00032e-21
6.55976e-17
4.24923e-12
1.01072e-06
3.82075e-26
2.00264e-21
6.56569e-17
4.25213e-12
1.01107e-06
3.77924e-26
1.99059e-21
6.5435e-17
4.25851e-12
1.01262e-06
3.7626e-26
1.98597e-21
6.53443e-17
4.25901e-12
1.01295e-06
2.20775e-26
1.58936e-21
5.68537e-17
4.11881e-12
1.00999e-06
2.20842e-26
1.59386e-21
5.90314e-17
4.68927e-12
1.00775e-06
3.76311e-26
1.99017e-21
6.74835e-17
4.82497e-12
1.01075e-06
3.7798e-26
1.9948e-21
6.75719e-17
4.82408e-12
1.01043e-06
3.82129e-26
2.0068e-21
6.77799e-17
4.81558e-12
1.0089e-06
3.81198e-26
2.00448e-21
6.77187e-17
4.81236e-12
1.00856e-06
3.7827e-26
1.99725e-21
6.75286e-17
4.80196e-12
1.00748e-06
3.77735e-26
1.99589e-21
6.74927e-17
4.80011e-12
1.00728e-06
3.76408e-26
1.99253e-21
6.74039e-17
4.79528e-12
1.00678e-06
3.76205e-26
1.99201e-21
6.73899e-17
4.79451e-12
1.0067e-06
3.75859e-26
1.99112e-21
6.7366e-17
4.79315e-12
1.00655e-06
3.75859e-26
1.99112e-21
6.7366e-17
4.79315e-12
1.00655e-06
3.76205e-26
1.99201e-21
6.73899e-17
4.79451e-12
1.0067e-06
3.76408e-26
1.99253e-21
6.74039e-17
4.79528e-12
1.00678e-06
3.77735e-26
1.99589e-21
6.74927e-17
4.80011e-12
1.00728e-06
3.7827e-26
1.99725e-21
6.75286e-17
4.80196e-12
1.00748e-06
3.81198e-26
2.00448e-21
6.77187e-17
4.81236e-12
1.00856e-06
3.82129e-26
2.0068e-21
6.77799e-17
4.81558e-12
1.0089e-06
3.7798e-26
1.9948e-21
6.75719e-17
4.82408e-12
1.01043e-06
3.76311e-26
1.99017e-21
6.74835e-17
4.82497e-12
1.01075e-06
2.20842e-26
1.59386e-21
5.90314e-17
4.68927e-12
1.00775e-06
2.20949e-26
1.59987e-21
6.15637e-17
5.25806e-12
1.00558e-06
3.76398e-26
1.99584e-21
6.99706e-17
5.38927e-12
1.00862e-06
3.78073e-26
2.00047e-21
7.00562e-17
5.38799e-12
1.0083e-06
3.82221e-26
2.01241e-21
7.02482e-17
5.37739e-12
1.00679e-06
3.81289e-26
2.01008e-21
7.01845e-17
5.37384e-12
1.00645e-06
3.78361e-26
2.00283e-21
6.99863e-17
5.36232e-12
1.00538e-06
3.77826e-26
2.00146e-21
6.99491e-17
5.36028e-12
1.00519e-06
3.76498e-26
1.99809e-21
6.98566e-17
5.35493e-12
1.00469e-06
3.76295e-26
1.99757e-21
6.9842e-17
5.35409e-12
1.00461e-06
3.75949e-26
1.99668e-21
6.98171e-17
5.35257e-12
1.00446e-06
3.75949e-26
1.99668e-21
6.98171e-17
5.35257e-12
1.00446e-06
3.76295e-26
1.99757e-21
6.9842e-17
5.35409e-12
1.00461e-06
3.76498e-26
1.99809e-21
6.98566e-17
5.35493e-12
1.00469e-06
3.77826e-26
2.00146e-21
6.99491e-17
5.36028e-12
1.00519e-06
3.78361e-26
2.00283e-21
6.99863e-17
5.36232e-12
1.00538e-06
3.81289e-26
2.01008e-21
7.01845e-17
5.37384e-12
1.00645e-06
3.82221e-26
2.01241e-21
7.02482e-17
5.37739e-12
1.00679e-06
3.78073e-26
2.00047e-21
7.00562e-17
5.38799e-12
1.0083e-06
3.76397e-26
1.99584e-21
6.99705e-17
5.38927e-12
1.00862e-06
2.20949e-26
1.59987e-21
6.15637e-17
5.25806e-12
1.00558e-06
2.21105e-26
1.60761e-21
6.44493e-17
5.82511e-12
1.00347e-06
3.76532e-26
2.00318e-21
7.2804e-17
5.95182e-12
1.00654e-06
3.78213e-26
2.00781e-21
7.28867e-17
5.95015e-12
1.00623e-06
3.82359e-26
2.01967e-21
7.30602e-17
5.93748e-12
1.00473e-06
3.81427e-26
2.01734e-21
7.2994e-17
5.93361e-12
1.0044e-06
3.78498e-26
2.01005e-21
7.27865e-17
5.92097e-12
1.00334e-06
3.77963e-26
2.00868e-21
7.27478e-17
5.91875e-12
1.00315e-06
3.76635e-26
2.0053e-21
7.2651e-17
5.91288e-12
1.00266e-06
3.76432e-26
2.00477e-21
7.26358e-17
5.91196e-12
1.00257e-06
3.76085e-26
2.00388e-21
7.26096e-17
5.9103e-12
1.00243e-06
3.76085e-26
2.00388e-21
7.26096e-17
5.9103e-12
1.00243e-06
3.76431e-26
2.00477e-21
7.26358e-17
5.91196e-12
1.00257e-06
3.76635e-26
2.0053e-21
7.2651e-17
5.91288e-12
1.00266e-06
3.77963e-26
2.00868e-21
7.27478e-17
5.91875e-12
1.00315e-06
3.78498e-26
2.01005e-21
7.27865e-17
5.92097e-12
1.00334e-06
3.81427e-26
2.01734e-21
7.2994e-17
5.93361e-12
1.0044e-06
3.82359e-26
2.01967e-21
7.30602e-17
5.93748e-12
1.00473e-06
3.78213e-26
2.00781e-21
7.28867e-17
5.95015e-12
1.00623e-06
3.76531e-26
2.00318e-21
7.2804e-17
5.95182e-12
1.00654e-06
2.21105e-26
1.60761e-21
6.44493e-17
5.82511e-12
1.00347e-06
2.21326e-26
1.61731e-21
6.76868e-17
6.39032e-12
1.00141e-06
3.76725e-26
2.0124e-21
7.59825e-17
6.51253e-12
1.00452e-06
3.78413e-26
2.01704e-21
7.60617e-17
6.51048e-12
1.00421e-06
3.82556e-26
2.0288e-21
7.62147e-17
6.49576e-12
1.00273e-06
3.81624e-26
2.02646e-21
7.61455e-17
6.49156e-12
1.0024e-06
3.78694e-26
2.01913e-21
7.59276e-17
6.47782e-12
1.00136e-06
3.78158e-26
2.01775e-21
7.58873e-17
6.47542e-12
1.00117e-06
3.7683e-26
2.01435e-21
7.57858e-17
6.46905e-12
1.00067e-06
3.76626e-26
2.01382e-21
7.57698e-17
6.46805e-12
1.00059e-06
3.7628e-26
2.01292e-21
7.57422e-17
6.46624e-12
1.00045e-06
3.7628e-26
2.01292e-21
7.57422e-17
6.46624e-12
1.00045e-06
3.76626e-26
2.01382e-21
7.57698e-17
6.46805e-12
1.00059e-06
3.7683e-26
2.01435e-21
7.57858e-17
6.46905e-12
1.00067e-06
3.78158e-26
2.01775e-21
7.58873e-17
6.47542e-12
1.00117e-06
3.78694e-26
2.01913e-21
7.59276e-17
6.47782e-12
1.00136e-06
3.81624e-26
2.02646e-21
7.61455e-17
6.49156e-12
1.0024e-06
3.82556e-26
2.0288e-21
7.62147e-17
6.49576e-12
1.00273e-06
3.78413e-26
2.01704e-21
7.60617e-17
6.51048e-12
1.00421e-06
3.76725e-26
2.0124e-21
7.59825e-17
6.51253e-12
1.00452e-06
2.21326e-26
1.61731e-21
6.76868e-17
6.39032e-12
1.00141e-06
2.21623e-26
1.62916e-21
7.12746e-17
6.95361e-12
9.99403e-07
3.76991e-26
2.02372e-21
7.95043e-17
7.07131e-12
1.00255e-06
3.78686e-26
2.02835e-21
7.95797e-17
7.06889e-12
1.00224e-06
3.82825e-26
2.04e-21
7.97101e-17
7.05214e-12
1.00078e-06
3.81893e-26
2.03764e-21
7.96376e-17
7.04763e-12
1.00046e-06
3.78961e-26
2.03027e-21
7.94083e-17
7.0328e-12
9.99416e-07
3.78425e-26
2.02888e-21
7.93661e-17
7.03021e-12
9.99227e-07
3.77096e-26
2.02546e-21
7.92593e-17
7.02334e-12
9.9874e-07
3.76893e-26
2.02493e-21
7.92426e-17
7.02226e-12
9.9866e-07
3.76546e-26
2.02402e-21
7.92135e-17
7.0203e-12
9.9852e-07
3.76546e-26
2.02402e-21
7.92135e-17
7.0203e-12
9.9852e-07
3.76893e-26
2.02493e-21
7.92426e-17
7.02226e-12
9.9866e-07
3.77096e-26
2.02546e-21
7.92593e-17
7.02334e-12
9.9874e-07
3.78425e-26
2.02888e-21
7.93661e-17
7.03021e-12
9.99227e-07
3.78961e-26
2.03027e-21
7.94083e-17
7.0328e-12
9.99416e-07
3.81893e-26
2.03764e-21
7.96376e-17
7.04763e-12
1.00046e-06
3.82825e-26
2.04e-21
7.97101e-17
7.05214e-12
1.00078e-06
3.78686e-26
2.02835e-21
7.95797e-17
7.06889e-12
1.00224e-06
3.76991e-26
2.02372e-21
7.95043e-17
7.07131e-12
1.00255e-06
2.21623e-26
1.62916e-21
7.12746e-17
6.95361e-12
9.99403e-07
2.22013e-26
1.6434e-21
7.52111e-17
7.51489e-12
9.97443e-07
3.77345e-26
2.03734e-21
8.33679e-17
7.62808e-12
1.00062e-06
3.79048e-26
2.04196e-21
8.34392e-17
7.62529e-12
1.00032e-06
3.83181e-26
2.05348e-21
8.35447e-17
7.60653e-12
9.98876e-07
3.82249e-26
2.05111e-21
8.34687e-17
7.60171e-12
9.98551e-07
3.79314e-26
2.04367e-21
8.32268e-17
7.5858e-12
9.9752e-07
3.78779e-26
2.04227e-21
8.31826e-17
7.58304e-12
9.97333e-07
3.77448e-26
2.03883e-21
8.30701e-17
7.57566e-12
9.9685e-07
3.77245e-26
2.03829e-21
8.30525e-17
7.5745e-12
9.9677e-07
3.76898e-26
2.03738e-21
8.30217e-17
7.5724e-12
9.96631e-07
3.76898e-26
2.03738e-21
8.30217e-17
7.5724e-12
9.96631e-07
3.77245e-26
2.03829e-21
8.30525e-17
7.5745e-12
9.9677e-07
3.77448e-26
2.03883e-21
8.30701e-17
7.57566e-12
9.9685e-07
3.78779e-26
2.04227e-21
8.31826e-17
7.58304e-12
9.97333e-07
3.79314e-26
2.04367e-21
8.32268e-17
7.5858e-12
9.9752e-07
3.82248e-26
2.05111e-21
8.34687e-17
7.60171e-12
9.98551e-07
3.83181e-26
2.05348e-21
8.35447e-17
7.60653e-12
9.98876e-07
3.79047e-26
2.04196e-21
8.34391e-17
7.62529e-12
1.00032e-06
3.77345e-26
2.03734e-21
8.33679e-17
7.62808e-12
1.00062e-06
2.22013e-26
1.6434e-21
7.52111e-17
7.51489e-12
9.97443e-07
2.22513e-26
1.66023e-21
7.94946e-17
8.07406e-12
9.9552e-07
3.77803e-26
2.05347e-21
8.75715e-17
8.18273e-12
9.98726e-07
3.79513e-26
2.05808e-21
8.76383e-17
8.17957e-12
9.98431e-07
3.8364e-26
2.06945e-21
8.77169e-17
8.15884e-12
9.97004e-07
3.82707e-26
2.06705e-21
8.76371e-17
8.15372e-12
9.96681e-07
3.7977e-26
2.05954e-21
8.73816e-17
8.13673e-12
9.95659e-07
3.79234e-26
2.05814e-21
8.73352e-17
8.13379e-12
9.95473e-07
3.77902e-26
2.05466e-21
8.72164e-17
8.12592e-12
9.94994e-07
3.77698e-26
2.05411e-21
8.71978e-17
8.12469e-12
9.94915e-07
3.77351e-26
2.05319e-21
8.71653e-17
8.12245e-12
9.94777e-07
3.77351e-26
2.05319e-21
8.71653e-17
8.12245e-12
9.94777e-07
3.77698e-26
2.05411e-21
8.71978e-17
8.12469e-12
9.94915e-07
3.77902e-26
2.05466e-21
8.72164e-17
8.12592e-12
9.94994e-07
3.79234e-26
2.05814e-21
8.73352e-17
8.13379e-12
9.95473e-07
3.7977e-26
2.05954e-21
8.73816e-17
8.13673e-12
9.95659e-07
3.82707e-26
2.06705e-21
8.76371e-17
8.15372e-12
9.96681e-07
3.8364e-26
2.06945e-21
8.77169e-17
8.15884e-12
9.97004e-07
3.79513e-26
2.05808e-21
8.76383e-17
8.17957e-12
9.98431e-07
3.77803e-26
2.05347e-21
8.75715e-17
8.18273e-12
9.98726e-07
2.22513e-26
1.66023e-21
7.94946e-17
8.07406e-12
9.9552e-07
2.23141e-26
1.67986e-21
8.41233e-17
8.63099e-12
9.93598e-07
3.78382e-26
2.07231e-21
9.21134e-17
8.73515e-12
9.96835e-07
3.801e-26
2.07691e-21
9.21752e-17
8.73163e-12
9.96543e-07
3.84219e-26
2.08809e-21
9.22249e-17
8.70895e-12
9.95132e-07
3.83285e-26
2.08568e-21
9.21409e-17
8.70352e-12
9.94812e-07
3.80345e-26
2.07809e-21
9.18708e-17
8.68548e-12
9.93799e-07
3.79808e-26
2.07667e-21
9.1822e-17
8.68237e-12
9.93615e-07
3.78475e-26
2.07315e-21
9.16965e-17
8.67401e-12
9.93139e-07
3.78271e-26
2.0726e-21
9.1677e-17
8.6727e-12
9.93061e-07
3.77923e-26
2.07167e-21
9.16424e-17
8.67032e-12
9.92924e-07
3.77923e-26
2.07167e-21
9.16424e-17
8.67032e-12
9.92924e-07
3.78271e-26
2.0726e-21
9.1677e-17
8.6727e-12
9.93061e-07
3.78475e-26
2.07315e-21
9.16965e-17
8.67401e-12
9.93139e-07
3.79808e-26
2.07667e-21
9.1822e-17
8.68237e-12
9.93615e-07
3.80345e-26
2.07809e-21
9.18708e-17
8.68548e-12
9.93799e-07
3.83285e-26
2.08568e-21
9.21409e-17
8.70352e-12
9.94812e-07
3.84219e-26
2.08809e-21
9.22249e-17
8.70895e-12
9.95132e-07
3.80099e-26
2.07691e-21
9.21752e-17
8.73163e-12
9.96543e-07
3.78382e-26
2.07231e-21
9.21133e-17
8.73515e-12
9.96835e-07
2.23141e-26
1.67986e-21
8.41233e-17
8.63099e-12
9.93598e-07
0.000714421
0.00015503
5.68702e-06
4.24601e-08
4.2037e-11
1.70504e-13
1.78844e-13
1.79776e-13
1.79978e-13
1.80015e-13
1.8003e-13
1.80125e-13
1.806e-13
1.81167e-13
1.85798e-13
1.8971e-13
2.30531e-13
2.52428e-13
8.06673e-13
9.42195e-13
0.00077638
0.000169915
6.41019e-06
5.01754e-08
5.53797e-11
1.7384e-13
1.78813e-13
1.79767e-13
1.79974e-13
1.80012e-13
1.80023e-13
1.801e-13
1.80585e-13
1.81163e-13
1.85875e-13
1.89833e-13
2.312e-13
2.53244e-13
8.13988e-13
9.51137e-13
0.000776655
0.000169929
6.4064e-06
5.01277e-08
5.52967e-11
1.73822e-13
1.78812e-13
1.79767e-13
1.79974e-13
1.80012e-13
1.80023e-13
1.80101e-13
1.80587e-13
1.81165e-13
1.85879e-13
1.89838e-13
2.31213e-13
2.53258e-13
8.14061e-13
9.5121e-13
0.000777483
0.000169755
6.36878e-06
4.96616e-08
5.4501e-11
1.73686e-13
1.78811e-13
1.79768e-13
1.79975e-13
1.80012e-13
1.80024e-13
1.80108e-13
1.80595e-13
1.81174e-13
1.85893e-13
1.89855e-13
2.31257e-13
2.53305e-13
8.14292e-13
9.51414e-13
0.000776802
0.000169571
6.35793e-06
4.95439e-08
5.42868e-11
1.73626e-13
1.78811e-13
1.79767e-13
1.79975e-13
1.80012e-13
1.80024e-13
1.80108e-13
1.80596e-13
1.81174e-13
1.85894e-13
1.89856e-13
2.31258e-13
2.53306e-13
8.14297e-13
9.51418e-13
0.000774915
0.000168981
6.32055e-06
4.9136e-08
5.35573e-11
1.7343e-13
1.78811e-13
1.79768e-13
1.79975e-13
1.80012e-13
1.80024e-13
1.80109e-13
1.80596e-13
1.81175e-13
1.85894e-13
1.89857e-13
2.3126e-13
2.53308e-13
8.14306e-13
9.51423e-13
0.000774527
0.000168878
6.31465e-06
4.90729e-08
5.34417e-11
1.73397e-13
1.78811e-13
1.79768e-13
1.79975e-13
1.80013e-13
1.80024e-13
1.80109e-13
1.80596e-13
1.81175e-13
1.85895e-13
1.89857e-13
2.31261e-13
2.53309e-13
8.14306e-13
9.51424e-13
0.000773639
0.000168607
6.29789e-06
4.88919e-08
5.31161e-11
1.73305e-13
1.78812e-13
1.79768e-13
1.79975e-13
1.80013e-13
1.80024e-13
1.80109e-13
1.80596e-13
1.81175e-13
1.85895e-13
1.89857e-13
2.31261e-13
2.53309e-13
8.14307e-13
9.51424e-13
0.000773485
0.000168565
6.29552e-06
4.88666e-08
5.30698e-11
1.73291e-13
1.78812e-13
1.79768e-13
1.79975e-13
1.80013e-13
1.80024e-13
1.80109e-13
1.80596e-13
1.81175e-13
1.85895e-13
1.89857e-13
2.31261e-13
2.53309e-13
8.14307e-13
9.51424e-13
0.00077324
0.00016849
6.29088e-06
4.88166e-08
5.29796e-11
1.73266e-13
1.78812e-13
1.79768e-13
1.79975e-13
1.80012e-13
1.80024e-13
1.80109e-13
1.80596e-13
1.81175e-13
1.85895e-13
1.89857e-13
2.31261e-13
2.53309e-13
8.14307e-13
9.51424e-13
0.00077324
0.00016849
6.29088e-06
4.88166e-08
5.29796e-11
1.73266e-13
1.78812e-13
1.79768e-13
1.79975e-13
1.80012e-13
1.80024e-13
1.80109e-13
1.80596e-13
1.81175e-13
1.85895e-13
1.89857e-13
2.31261e-13
2.53309e-13
8.14307e-13
9.51424e-13
0.000773485
0.000168565
6.29552e-06
4.88666e-08
5.30698e-11
1.73291e-13
1.78812e-13
1.79768e-13
1.79975e-13
1.80013e-13
1.80024e-13
1.80109e-13
1.80596e-13
1.81175e-13
1.85895e-13
1.89857e-13
2.31261e-13
2.53309e-13
8.14307e-13
9.51424e-13
0.000773639
0.000168607
6.29789e-06
4.88919e-08
5.31161e-11
1.73305e-13
1.78812e-13
1.79768e-13
1.79975e-13
1.80013e-13
1.80024e-13
1.80109e-13
1.80596e-13
1.81175e-13
1.85895e-13
1.89857e-13
2.31261e-13
2.53309e-13
8.14307e-13
9.51424e-13
0.000774527
0.000168878
6.31465e-06
4.90729e-08
5.34417e-11
1.73397e-13
1.78811e-13
1.79768e-13
1.79975e-13
1.80013e-13
1.80024e-13
1.80109e-13
1.80596e-13
1.81175e-13
1.85895e-13
1.89857e-13
2.31261e-13
2.53309e-13
8.14306e-13
9.51424e-13
0.000774915
0.000168981
6.32055e-06
4.9136e-08
5.35573e-11
1.7343e-13
1.78811e-13
1.79768e-13
1.79975e-13
1.80012e-13
1.80024e-13
1.80109e-13
1.80596e-13
1.81175e-13
1.85894e-13
1.89857e-13
2.3126e-13
2.53308e-13
8.14306e-13
9.51423e-13
0.000776802
0.000169571
6.35793e-06
4.95439e-08
5.42868e-11
1.73626e-13
1.78811e-13
1.79767e-13
1.79975e-13
1.80012e-13
1.80024e-13
1.80108e-13
1.80596e-13
1.81174e-13
1.85894e-13
1.89856e-13
2.31258e-13
2.53306e-13
8.14297e-13
9.51418e-13
0.000777483
0.000169755
6.36878e-06
4.96616e-08
5.4501e-11
1.73686e-13
1.78811e-13
1.79768e-13
1.79975e-13
1.80012e-13
1.80024e-13
1.80108e-13
1.80595e-13
1.81174e-13
1.85893e-13
1.89855e-13
2.31257e-13
2.53305e-13
8.14292e-13
9.51414e-13
0.000776655
0.000169929
6.4064e-06
5.01277e-08
5.52967e-11
1.73822e-13
1.78812e-13
1.79767e-13
1.79974e-13
1.80012e-13
1.80023e-13
1.80101e-13
1.80587e-13
1.81165e-13
1.85879e-13
1.89838e-13
2.31213e-13
2.53258e-13
8.14061e-13
9.5121e-13
0.00077638
0.000169915
6.41019e-06
5.01754e-08
5.53797e-11
1.7384e-13
1.78813e-13
1.79767e-13
1.79974e-13
1.80012e-13
1.80023e-13
1.801e-13
1.80585e-13
1.81163e-13
1.85875e-13
1.89833e-13
2.312e-13
2.53244e-13
8.13988e-13
9.51137e-13
0.000714421
0.00015503
5.68702e-06
4.24601e-08
4.2037e-11
1.70504e-13
1.78844e-13
1.79776e-13
1.79978e-13
1.80015e-13
1.8003e-13
1.80125e-13
1.806e-13
1.81167e-13
1.85798e-13
1.8971e-13
2.30531e-13
2.52428e-13
8.06673e-13
9.42195e-13
0.0111449
0.00327192
0.000175472
1.77361e-06
2.72884e-09
7.79247e-12
7.48095e-12
7.52489e-12
7.53445e-12
7.53622e-12
7.53688e-12
7.54098e-12
7.56129e-12
7.58534e-12
7.78127e-12
7.94545e-12
9.65835e-12
1.05676e-11
3.35402e-11
3.90374e-11
0.0118554
0.00351528
0.000193307
2.02531e-06
3.29843e-09
8.00938e-12
7.47949e-12
7.52448e-12
7.53427e-12
7.53608e-12
7.53661e-12
7.53993e-12
7.56069e-12
7.58518e-12
7.78455e-12
7.95074e-12
9.68672e-12
1.0602e-11
3.38447e-11
3.94083e-11
0.0118566
0.00351482
0.000193143
2.0228e-06
3.29277e-09
8.0075e-12
7.47947e-12
7.52448e-12
7.53428e-12
7.53609e-12
7.53661e-12
7.53999e-12
7.56077e-12
7.58527e-12
7.78472e-12
7.95094e-12
9.68727e-12
1.06026e-11
3.38477e-11
3.94113e-11
0.0118614
0.00350964
0.000191887
2.00262e-06
3.24621e-09
7.99193e-12
7.47941e-12