/*--------------------------------*- C++ -*----------------------------------*\
  =========                 |
  \\      /  F ield         | OpenFOAM: The Open Source CFD Toolbox
   \\    /   O peration     | Website:  https://openfoam.org
    \\  /    A nd           | Version:  8
     \\/     M anipulation  |
\*---------------------------------------------------------------------------*/
FoamFile
{
    version     2.0;
    format      ascii;
    class       volScalarField;
    location    "1.2";
    object      H2;
}
// * * * * * * * * * * * * * * * * * * * * * * * * * * * * * * * * * * * * * //

dimensions      [0 1 -1 0 0 0 0];

internalField   nonuniform List<scalar> 
180000
(
-1.85707e-32
-1.93887e-27
-1.85416e-22
-1.5971e-17
-1.22572e-12
-2.16072e-32
-2.24351e-27
-2.13211e-22
-1.82323e-17
-1.38719e-12
-2.16925e-32
-2.25208e-27
-2.13994e-22
-1.82961e-17
-1.39173e-12
-2.19731e-32
-2.2807e-27
-2.16649e-22
-1.85157e-17
-1.40765e-12
-2.19826e-32
-2.28169e-27
-2.16744e-22
-1.85238e-17
-1.40826e-12
-2.20012e-32
-2.28371e-27
-2.16943e-22
-1.85413e-17
-1.40961e-12
-2.20013e-32
-2.28374e-27
-2.16948e-22
-1.8542e-17
-1.40968e-12
-2.20017e-32
-2.28383e-27
-2.16961e-22
-1.85435e-17
-1.40982e-12
-2.20013e-32
-2.28379e-27
-2.16958e-22
-1.85433e-17
-1.40982e-12
-2.20009e-32
-2.28377e-27
-2.16957e-22
-1.85434e-17
-1.40983e-12
-2.20009e-32
-2.28377e-27
-2.16957e-22
-1.85434e-17
-1.40983e-12
-2.20013e-32
-2.28379e-27
-2.16958e-22
-1.85433e-17
-1.40982e-12
-2.20017e-32
-2.28383e-27
-2.16961e-22
-1.85435e-17
-1.40982e-12
-2.20013e-32
-2.28374e-27
-2.16948e-22
-1.8542e-17
-1.40968e-12
-2.20012e-32
-2.28371e-27
-2.16943e-22
-1.85413e-17
-1.40961e-12
-2.19826e-32
-2.28169e-27
-2.16744e-22
-1.85238e-17
-1.40826e-12
-2.19731e-32
-2.2807e-27
-2.16649e-22
-1.85157e-17
-1.40765e-12
-2.16925e-32
-2.25208e-27
-2.13994e-22
-1.82961e-17
-1.39173e-12
-2.16073e-32
-2.24351e-27
-2.13211e-22
-1.82324e-17
-1.38719e-12
-1.85707e-32
-1.93887e-27
-1.85416e-22
-1.5971e-17
-1.22572e-12
-1.85673e-32
-1.93967e-27
-1.8702e-22
-1.82508e-17
-4.83314e-12
-2.16033e-32
-2.24431e-27
-2.14908e-22
-2.06754e-17
-5.2852e-12
-2.16885e-32
-2.25288e-27
-2.15693e-22
-2.07429e-17
-5.29669e-12
-2.19691e-32
-2.28149e-27
-2.18351e-22
-2.09735e-17
-5.33618e-12
-2.19786e-32
-2.28249e-27
-2.18446e-22
-2.09818e-17
-5.33752e-12
-2.19972e-32
-2.2845e-27
-2.18643e-22
-2.09987e-17
-5.33951e-12
-2.19973e-32
-2.28453e-27
-2.18649e-22
-2.09993e-17
-5.33958e-12
-2.19977e-32
-2.28462e-27
-2.18661e-22
-2.10004e-17
-5.33952e-12
-2.19972e-32
-2.28458e-27
-2.18658e-22
-2.10003e-17
-5.3395e-12
-2.19969e-32
-2.28456e-27
-2.18657e-22
-2.10002e-17
-5.33945e-12
-2.19969e-32
-2.28456e-27
-2.18657e-22
-2.10002e-17
-5.33945e-12
-2.19972e-32
-2.28458e-27
-2.18658e-22
-2.10003e-17
-5.3395e-12
-2.19977e-32
-2.28462e-27
-2.18661e-22
-2.10004e-17
-5.33952e-12
-2.19973e-32
-2.28453e-27
-2.18649e-22
-2.09993e-17
-5.33958e-12
-2.19972e-32
-2.2845e-27
-2.18643e-22
-2.09987e-17
-5.33951e-12
-2.19786e-32
-2.28249e-27
-2.18446e-22
-2.09818e-17
-5.33752e-12
-2.19691e-32
-2.28149e-27
-2.18351e-22
-2.09735e-17
-5.33618e-12
-2.16885e-32
-2.25288e-27
-2.15693e-22
-2.07429e-17
-5.29669e-12
-2.16033e-32
-2.24431e-27
-2.14908e-22
-2.06754e-17
-5.2852e-12
-1.85673e-32
-1.93967e-27
-1.8702e-22
-1.82508e-17
-4.83314e-12
-1.85831e-32
-1.96423e-27
-2.21216e-22
-6.3167e-17
-7.19898e-11
-2.16188e-32
-2.2694e-27
-2.50221e-22
-6.75222e-17
-7.57956e-11
-2.1704e-32
-2.27797e-27
-2.51025e-22
-6.76281e-17
-7.58778e-11
-2.19845e-32
-2.30653e-27
-2.53681e-22
-6.79547e-17
-7.6161e-11
-2.19939e-32
-2.30752e-27
-2.53772e-22
-6.79637e-17
-7.6169e-11
-2.20124e-32
-2.3095e-27
-2.53933e-22
-6.796e-17
-7.61682e-11
-2.20125e-32
-2.30952e-27
-2.53936e-22
-6.79592e-17
-7.6168e-11
-2.2013e-32
-2.3096e-27
-2.53936e-22
-6.79519e-17
-7.61628e-11
-2.20125e-32
-2.30956e-27
-2.53933e-22
-6.79512e-17
-7.61625e-11
-2.20122e-32
-2.30954e-27
-2.53929e-22
-6.79493e-17
-7.61612e-11
-2.20122e-32
-2.30954e-27
-2.53929e-22
-6.79493e-17
-7.61612e-11
-2.20125e-32
-2.30956e-27
-2.53933e-22
-6.79512e-17
-7.61625e-11
-2.2013e-32
-2.3096e-27
-2.53936e-22
-6.79519e-17
-7.61628e-11
-2.20125e-32
-2.30952e-27
-2.53936e-22
-6.79592e-17
-7.6168e-11
-2.20124e-32
-2.3095e-27
-2.53933e-22
-6.796e-17
-7.61682e-11
-2.19939e-32
-2.30752e-27
-2.53772e-22
-6.79637e-17
-7.6169e-11
-2.19845e-32
-2.30653e-27
-2.53681e-22
-6.79547e-17
-7.6161e-11
-2.1704e-32
-2.27797e-27
-2.51025e-22
-6.76281e-17
-7.58778e-11
-2.16188e-32
-2.2694e-27
-2.50221e-22
-6.75222e-17
-7.57956e-11
-1.85831e-32
-1.96423e-27
-2.21216e-22
-6.3167e-17
-7.19898e-11
-1.87695e-32
-2.19306e-27
-5.1338e-22
-4.15785e-16
-5.52761e-10
-2.1802e-32
-2.49682e-27
-5.42529e-22
-4.22611e-16
-5.6115e-10
-2.18871e-32
-2.5053e-27
-5.43272e-22
-4.22723e-16
-5.61284e-10
-2.21663e-32
-2.53285e-27
-5.45126e-22
-4.22719e-16
-5.61628e-10
-2.21757e-32
-2.53377e-27
-5.45163e-22
-4.22701e-16
-5.61633e-10
-2.21938e-32
-2.53536e-27
-5.4497e-22
-4.22465e-16
-5.61496e-10
-2.21939e-32
-2.53536e-27
-5.44952e-22
-4.22453e-16
-5.61493e-10
-2.21942e-32
-2.53533e-27
-5.44851e-22
-4.22375e-16
-5.61443e-10
-2.21937e-32
-2.53528e-27
-5.44842e-22
-4.22372e-16
-5.61443e-10
-2.21934e-32
-2.53524e-27
-5.44818e-22
-4.22356e-16
-5.61432e-10
-2.21934e-32
-2.53524e-27
-5.44818e-22
-4.22356e-16
-5.61432e-10
-2.21937e-32
-2.53528e-27
-5.44842e-22
-4.22372e-16
-5.61443e-10
-2.21942e-32
-2.53533e-27
-5.44851e-22
-4.22375e-16
-5.61443e-10
-2.21939e-32
-2.53536e-27
-5.44952e-22
-4.22453e-16
-5.61493e-10
-2.21938e-32
-2.53536e-27
-5.4497e-22
-4.22465e-16
-5.61496e-10
-2.21757e-32
-2.53377e-27
-5.45163e-22
-4.22701e-16
-5.61633e-10
-2.21663e-32
-2.53285e-27
-5.45126e-22
-4.22719e-16
-5.61628e-10
-2.18871e-32
-2.5053e-27
-5.43272e-22
-4.22723e-16
-5.61284e-10
-2.1802e-32
-2.49682e-27
-5.4253e-22
-4.22611e-16
-5.6115e-10
-1.87695e-32
-2.19306e-27
-5.1338e-22
-4.15785e-16
-5.52761e-10
-1.98039e-32
-3.31941e-27
-1.78233e-21
-1.73157e-15
-2.0327e-09
-2.27868e-32
-3.57275e-27
-1.75306e-21
-1.67096e-15
-1.94106e-09
-2.28706e-32
-3.57988e-27
-1.75232e-21
-1.66949e-15
-1.93897e-09
-2.31406e-32
-3.59908e-27
-1.74599e-21
-1.662e-15
-1.93003e-09
-2.31494e-32
-3.5996e-27
-1.74566e-21
-1.66171e-15
-1.92976e-09
-2.31651e-32
-3.59908e-27
-1.74364e-21
-1.66019e-15
-1.92854e-09
-2.3165e-32
-3.59897e-27
-1.74354e-21
-1.66013e-15
-1.92853e-09
-2.31648e-32
-3.5984e-27
-1.74299e-21
-1.65978e-15
-1.9283e-09
-2.31642e-32
-3.59833e-27
-1.74297e-21
-1.65977e-15
-1.92831e-09
-2.31638e-32
-3.59818e-27
-1.74286e-21
-1.65971e-15
-1.92828e-09
-2.31638e-32
-3.59818e-27
-1.74286e-21
-1.65971e-15
-1.92828e-09
-2.31642e-32
-3.59833e-27
-1.74297e-21
-1.65977e-15
-1.92831e-09
-2.31648e-32
-3.5984e-27
-1.74299e-21
-1.65978e-15
-1.9283e-09
-2.3165e-32
-3.59897e-27
-1.74354e-21
-1.66013e-15
-1.92853e-09
-2.31651e-32
-3.59908e-27
-1.74364e-21
-1.66019e-15
-1.92854e-09
-2.31494e-32
-3.5996e-27
-1.74566e-21
-1.66171e-15
-1.92976e-09
-2.31406e-32
-3.59908e-27
-1.74599e-21
-1.662e-15
-1.93003e-09
-2.28706e-32
-3.57988e-27
-1.75232e-21
-1.66949e-15
-1.93897e-09
-2.27868e-32
-3.57275e-27
-1.75306e-21
-1.67096e-15
-1.94106e-09
-1.98039e-32
-3.31941e-27
-1.78233e-21
-1.73157e-15
-2.0327e-09
-2.31676e-32
-6.34884e-27
-4.39509e-21
-3.43646e-15
-2.48921e-09
-2.58122e-32
-6.24458e-27
-3.94669e-21
-2.89211e-15
-1.73851e-09
-2.58879e-32
-6.2437e-27
-3.93699e-21
-2.88067e-15
-1.72303e-09
-2.61151e-32
-6.22358e-27
-3.89049e-21
-2.83172e-15
-1.65993e-09
-2.61221e-32
-6.22259e-27
-3.88883e-21
-2.83025e-15
-1.65821e-09
-2.61292e-32
-6.21545e-27
-3.88158e-21
-2.82489e-15
-1.65295e-09
-2.61287e-32
-6.21507e-27
-3.88133e-21
-2.8248e-15
-1.65296e-09
-2.61263e-32
-6.21307e-27
-3.87984e-21
-2.82399e-15
-1.65247e-09
-2.61257e-32
-6.21297e-27
-3.87983e-21
-2.82404e-15
-1.65257e-09
-2.61249e-32
-6.21258e-27
-3.87958e-21
-2.82394e-15
-1.65256e-09
-2.61249e-32
-6.21258e-27
-3.87958e-21
-2.82394e-15
-1.65256e-09
-2.61257e-32
-6.21297e-27
-3.87983e-21
-2.82404e-15
-1.65257e-09
-2.61263e-32
-6.21307e-27
-3.87984e-21
-2.82399e-15
-1.65247e-09
-2.61287e-32
-6.21507e-27
-3.88133e-21
-2.8248e-15
-1.65296e-09
-2.61292e-32
-6.21545e-27
-3.88158e-21
-2.82489e-15
-1.65295e-09
-2.61221e-32
-6.22259e-27
-3.88883e-21
-2.83025e-15
-1.65821e-09
-2.61151e-32
-6.22358e-27
-3.89049e-21
-2.83172e-15
-1.65993e-09
-2.58879e-32
-6.2437e-27
-3.93699e-21
-2.88067e-15
-1.72303e-09
-2.58122e-32
-6.24458e-27
-3.94669e-21
-2.89211e-15
-1.73851e-09
-2.31676e-32
-6.34884e-27
-4.39509e-21
-3.43646e-15
-2.48921e-09
-2.85042e-32
-8.56711e-27
-2.80087e-21
2.77611e-15
1.03249e-08
-2.97311e-32
-7.02736e-27
-7.75514e-22
4.99853e-15
1.30763e-08
-2.97774e-32
-6.99784e-27
-7.35223e-22
5.04234e-15
1.31303e-08
-2.98719e-32
-6.86026e-27
-5.71051e-22
5.21499e-15
1.33461e-08
-2.98745e-32
-6.856e-27
-5.66646e-22
5.21927e-15
1.33516e-08
-2.98645e-32
-6.83881e-27
-5.53518e-22
5.22957e-15
1.33644e-08
-2.98635e-32
-6.83841e-27
-5.53571e-22
5.22928e-15
1.33641e-08
-2.98582e-32
-6.83545e-27
-5.52519e-22
5.22921e-15
1.3364e-08
-2.98576e-32
-6.83554e-27
-5.5281e-22
5.22883e-15
1.33636e-08
-2.98564e-32
-6.83511e-27
-5.52825e-22
5.22857e-15
1.33633e-08
-2.98564e-32
-6.83511e-27
-5.52825e-22
5.22857e-15
1.33633e-08
-2.98576e-32
-6.83554e-27
-5.5281e-22
5.22883e-15
1.33636e-08
-2.98582e-32
-6.83545e-27
-5.52519e-22
5.22921e-15
1.3364e-08
-2.98635e-32
-6.83841e-27
-5.53571e-22
5.22928e-15
1.33641e-08
-2.98645e-32
-6.83881e-27
-5.53518e-22
5.22957e-15
1.33644e-08
-2.98745e-32
-6.856e-27
-5.66645e-22
5.21927e-15
1.33516e-08
-2.98719e-32
-6.86026e-27
-5.71051e-22
5.21499e-15
1.33461e-08
-2.97774e-32
-6.99784e-27
-7.35222e-22
5.04234e-15
1.31303e-08
-2.97311e-32
-7.02735e-27
-7.75512e-22
4.99853e-15
1.30763e-08
-2.85042e-32
-8.56711e-27
-2.80087e-21
2.77611e-15
1.03249e-08
-2.09964e-32
9.9402e-27
2.79794e-20
4.36803e-14
6.52285e-08
-1.80889e-32
1.53599e-26
3.38578e-20
4.95229e-14
7.15189e-08
-1.80591e-32
1.54589e-26
3.39662e-20
4.96324e-14
7.16377e-08
-1.78912e-32
1.58138e-26
3.43384e-20
5.00251e-14
7.20953e-08
-1.78896e-32
1.58199e-26
3.43439e-20
5.00322e-14
7.21055e-08
-1.78798e-32
1.58236e-26
3.43389e-20
5.00338e-14
7.21204e-08
-1.78808e-32
1.58213e-26
3.43359e-20
5.00314e-14
7.2119e-08
-1.7881e-32
1.58151e-26
3.43264e-20
5.00237e-14
7.21145e-08
-1.78816e-32
1.58137e-26
3.43247e-20
5.00223e-14
7.21133e-08
-1.78819e-32
1.58118e-26
3.43221e-20
5.00201e-14
7.21116e-08
-1.78819e-32
1.58118e-26
3.43221e-20
5.00201e-14
7.21116e-08
-1.78816e-32
1.58137e-26
3.43247e-20
5.00223e-14
7.21133e-08
-1.7881e-32
1.58151e-26
3.43264e-20
5.00237e-14
7.21145e-08
-1.78808e-32
1.58213e-26
3.43359e-20
5.00314e-14
7.2119e-08
-1.78798e-32
1.58236e-26
3.43389e-20
5.00338e-14
7.21204e-08
-1.78896e-32
1.58199e-26
3.43439e-20
5.00322e-14
7.21055e-08
-1.78912e-32
1.58138e-26
3.43384e-20
5.00251e-14
7.20953e-08
-1.8059e-32
1.54589e-26
3.39662e-20
4.96324e-14
7.16377e-08
-1.80889e-32
1.53599e-26
3.38578e-20
4.95229e-14
7.15189e-08
-2.09964e-32
9.9402e-27
2.79794e-20
4.36803e-14
6.52285e-08
6.11086e-32
1.12706e-25
1.50561e-19
1.70534e-13
1.99817e-07
7.27862e-32
1.25567e-25
1.62881e-19
1.81436e-13
2.09568e-07
7.29525e-32
1.25781e-25
1.63089e-19
1.81629e-13
2.09743e-07
7.33215e-32
1.26277e-25
1.63596e-19
1.82207e-13
2.10361e-07
7.3307e-32
1.26267e-25
1.63588e-19
1.82209e-13
2.10371e-07
7.31727e-32
1.26132e-25
1.63466e-19
1.82147e-13
2.10356e-07
7.31577e-32
1.26117e-25
1.63452e-19
1.82139e-13
2.10351e-07
7.31043e-32
1.26061e-25
1.63399e-19
1.82105e-13
2.10333e-07
7.30985e-32
1.26055e-25
1.63393e-19
1.82101e-13
2.1033e-07
7.30864e-32
1.26042e-25
1.63381e-19
1.82093e-13
2.10326e-07
7.30864e-32
1.26042e-25
1.63381e-19
1.82093e-13
2.10326e-07
7.30985e-32
1.26055e-25
1.63393e-19
1.82101e-13
2.1033e-07
7.31043e-32
1.26061e-25
1.63399e-19
1.82105e-13
2.10333e-07
7.31577e-32
1.26117e-25
1.63452e-19
1.82139e-13
2.10351e-07
7.31727e-32
1.26132e-25
1.63466e-19
1.82147e-13
2.10356e-07
7.3307e-32
1.26267e-25
1.63588e-19
1.82209e-13
2.10371e-07
7.33215e-32
1.26277e-25
1.63596e-19
1.82207e-13
2.10361e-07
7.29525e-32
1.25781e-25
1.63089e-19
1.81629e-13
2.09743e-07
7.27862e-32
1.25567e-25
1.62881e-19
1.81436e-13
2.09568e-07
6.11086e-32
1.12706e-25
1.50561e-19
1.70534e-13
1.99817e-07
3.8524e-31
4.41324e-25
4.76109e-19
4.48773e-13
4.35063e-07
4.10042e-31
4.63938e-25
4.95308e-19
4.63615e-13
4.45238e-07
4.10343e-31
4.64252e-25
4.95584e-19
4.63854e-13
4.45405e-07
4.09934e-31
4.64138e-25
4.95648e-19
4.6425e-13
4.4582e-07
4.09819e-31
4.6405e-25
4.95585e-19
4.64226e-13
4.45814e-07
4.09032e-31
4.63408e-25
4.95093e-19
4.63977e-13
4.45703e-07
4.08965e-31
4.63353e-25
4.9505e-19
4.63954e-13
4.45691e-07
4.08706e-31
4.63136e-25
4.9488e-19
4.6386e-13
4.45644e-07
4.08684e-31
4.63117e-25
4.94865e-19
4.63851e-13
4.4564e-07
4.08628e-31
4.63071e-25
4.94828e-19
4.6383e-13
4.45629e-07
4.08628e-31
4.63071e-25
4.94828e-19
4.6383e-13
4.45629e-07
4.08684e-31
4.63117e-25
4.94865e-19
4.63851e-13
4.4564e-07
4.08706e-31
4.63136e-25
4.9488e-19
4.6386e-13
4.45644e-07
4.08965e-31
4.63353e-25
4.9505e-19
4.63954e-13
4.45691e-07
4.09032e-31
4.63408e-25
4.95093e-19
4.63977e-13
4.45703e-07
4.09819e-31
4.6405e-25
4.95585e-19
4.64226e-13
4.45814e-07
4.09934e-31
4.64138e-25
4.95648e-19
4.6425e-13
4.4582e-07
4.10343e-31
4.64252e-25
4.95584e-19
4.63854e-13
4.45405e-07
4.10042e-31
4.63938e-25
4.95308e-19
4.63615e-13
4.45238e-07
3.8524e-31
4.41324e-25
4.76109e-19
4.48773e-13
4.35063e-07
1.22172e-30
1.13373e-24
1.00026e-18
7.22594e-13
4.30555e-07
1.26166e-30
1.1673e-24
1.02691e-18
7.41471e-13
4.408e-07
1.26197e-30
1.16766e-24
1.02724e-18
7.41763e-13
4.40971e-07
1.25821e-30
1.16555e-24
1.02633e-18
7.42008e-13
4.41408e-07
1.25781e-30
1.16529e-24
1.02617e-18
7.41959e-13
4.41403e-07
1.25527e-30
1.16354e-24
1.02507e-18
7.41533e-13
4.41299e-07
1.25507e-30
1.1634e-24
1.02498e-18
7.41495e-13
4.41288e-07
1.25429e-30
1.16285e-24
1.02463e-18
7.41344e-13
4.41243e-07
1.25423e-30
1.16281e-24
1.0246e-18
7.4133e-13
4.41238e-07
1.25407e-30
1.16269e-24
1.02452e-18
7.41297e-13
4.41228e-07
1.25407e-30
1.16269e-24
1.02452e-18
7.41297e-13
4.41228e-07
1.25423e-30
1.16281e-24
1.0246e-18
7.4133e-13
4.41238e-07
1.25429e-30
1.16285e-24
1.02463e-18
7.41344e-13
4.41243e-07
1.25507e-30
1.1634e-24
1.02498e-18
7.41495e-13
4.41288e-07
1.25527e-30
1.16354e-24
1.02507e-18
7.41533e-13
4.41299e-07
1.25781e-30
1.16529e-24
1.02617e-18
7.41959e-13
4.41403e-07
1.25821e-30
1.16555e-24
1.02633e-18
7.42008e-13
4.41408e-07
1.26197e-30
1.16766e-24
1.02724e-18
7.41763e-13
4.40971e-07
1.26166e-30
1.1673e-24
1.02691e-18
7.41471e-13
4.408e-07
1.22172e-30
1.13373e-24
1.00026e-18
7.22594e-13
4.30555e-07
2.94089e-30
2.32409e-24
1.71856e-18
9.91979e-13
4.26123e-07
2.99372e-30
2.36888e-24
1.75339e-18
1.01499e-12
4.36436e-07
2.99372e-30
2.36916e-24
1.75375e-18
1.01533e-12
4.3661e-07
2.98185e-30
2.36313e-24
1.75138e-18
1.01546e-12
4.37068e-07
2.98083e-30
2.36255e-24
1.75109e-18
1.01539e-12
4.37064e-07
2.97465e-30
2.35888e-24
1.74916e-18
1.01479e-12
4.36967e-07
2.9742e-30
2.3586e-24
1.74901e-18
1.01474e-12
4.36956e-07
2.97235e-30
2.35748e-24
1.7484e-18
1.01454e-12
4.36913e-07
2.97221e-30
2.3574e-24
1.74835e-18
1.01452e-12
4.36909e-07
2.97183e-30
2.35717e-24
1.74822e-18
1.01447e-12
4.36899e-07
2.97183e-30
2.35717e-24
1.74822e-18
1.01447e-12
4.36899e-07
2.97221e-30
2.3574e-24
1.74835e-18
1.01452e-12
4.36909e-07
2.97235e-30
2.35748e-24
1.7484e-18
1.01454e-12
4.36913e-07
2.9742e-30
2.3586e-24
1.74901e-18
1.01474e-12
4.36956e-07
2.97465e-30
2.35888e-24
1.74916e-18
1.01479e-12
4.36967e-07
2.98083e-30
2.36255e-24
1.75109e-18
1.01539e-12
4.37064e-07
2.98185e-30
2.36313e-24
1.75138e-18
1.01546e-12
4.37068e-07
2.99372e-30
2.36916e-24
1.75375e-18
1.01533e-12
4.3661e-07
2.99372e-30
2.36888e-24
1.75339e-18
1.01499e-12
4.36436e-07
2.94089e-30
2.32409e-24
1.71856e-18
9.91979e-13
4.26123e-07
6.01013e-30
4.14267e-24
2.62641e-18
1.25684e-12
4.21737e-07
6.06756e-30
4.19811e-24
2.67026e-18
1.28407e-12
4.32116e-07
6.06672e-30
4.1982e-24
2.67066e-18
1.28449e-12
4.32294e-07
6.0392e-30
4.18577e-24
2.66639e-18
1.28452e-12
4.32771e-07
6.03707e-30
4.18471e-24
2.66593e-18
1.28443e-12
4.32769e-07
6.02437e-30
4.17811e-24
2.66296e-18
1.28367e-12
4.32679e-07
6.02346e-30
4.17762e-24
2.66274e-18
1.28361e-12
4.32668e-07
6.01974e-30
4.17565e-24
2.66182e-18
1.28335e-12
4.32627e-07
6.01947e-30
4.1755e-24
2.66175e-18
1.28333e-12
4.32623e-07
6.01872e-30
4.17509e-24
2.66156e-18
1.28327e-12
4.32614e-07
6.01872e-30
4.17509e-24
2.66156e-18
1.28327e-12
4.32614e-07
6.01947e-30
4.1755e-24
2.66175e-18
1.28333e-12
4.32623e-07
6.01974e-30
4.17565e-24
2.66182e-18
1.28335e-12
4.32627e-07
6.02346e-30
4.17762e-24
2.66274e-18
1.28361e-12
4.32668e-07
6.02437e-30
4.17811e-24
2.66296e-18
1.28367e-12
4.32679e-07
6.03707e-30
4.18471e-24
2.66593e-18
1.28443e-12
4.32769e-07
6.0392e-30
4.18577e-24
2.66639e-18
1.28452e-12
4.32771e-07
6.06672e-30
4.1982e-24
2.67066e-18
1.28449e-12
4.32294e-07
6.06756e-30
4.19811e-24
2.67026e-18
1.28407e-12
4.32116e-07
6.01013e-30
4.14267e-24
2.62641e-18
1.25684e-12
4.21737e-07
1.09907e-29
6.71569e-24
3.71906e-18
1.5171e-12
4.17392e-07
1.10368e-29
6.78057e-24
3.77295e-18
1.54865e-12
4.27836e-07
1.10343e-29
6.78032e-24
3.77338e-18
1.54913e-12
4.28017e-07
1.09804e-29
6.75856e-24
3.76683e-18
1.5491e-12
4.28514e-07
1.09765e-29
6.75682e-24
3.76618e-18
1.54899e-12
4.28513e-07
1.09532e-29
6.7461e-24
3.76198e-18
1.54809e-12
4.2843e-07
1.09516e-29
6.74533e-24
3.76166e-18
1.54801e-12
4.2842e-07
1.09448e-29
6.74215e-24
3.76037e-18
1.54771e-12
4.28381e-07
1.09444e-29
6.74192e-24
3.76028e-18
1.54768e-12
4.28377e-07
1.0943e-29
6.74127e-24
3.76001e-18
1.54761e-12
4.28368e-07
1.0943e-29
6.74127e-24
3.76001e-18
1.54761e-12
4.28368e-07
1.09444e-29
6.74192e-24
3.76028e-18
1.54768e-12
4.28377e-07
1.09448e-29
6.74215e-24
3.76037e-18
1.54771e-12
4.28381e-07
1.09516e-29
6.74533e-24
3.76166e-18
1.54801e-12
4.2842e-07
1.09532e-29
6.7461e-24
3.76198e-18
1.54809e-12
4.2843e-07
1.09765e-29
6.75682e-24
3.76618e-18
1.54899e-12
4.28513e-07
1.09804e-29
6.75856e-24
3.76683e-18
1.5491e-12
4.28514e-07
1.10343e-29
6.78032e-24
3.77338e-18
1.54913e-12
4.28017e-07
1.10368e-29
6.78057e-24
3.77295e-18
1.54865e-12
4.27836e-07
1.09907e-29
6.71569e-24
3.71906e-18
1.5171e-12
4.17392e-07
1.85346e-29
1.01652e-23
4.99164e-18
1.77267e-12
4.13085e-07
1.85443e-29
1.02378e-23
5.05671e-18
1.80863e-12
4.23593e-07
1.85391e-29
1.0237e-23
5.05719e-18
1.80918e-12
4.23777e-07
1.84442e-29
1.02026e-23
5.04802e-18
1.80912e-12
4.24294e-07
1.84376e-29
1.02e-23
5.04716e-18
1.809e-12
4.24294e-07
1.83985e-29
1.01838e-23
5.04154e-18
1.80795e-12
4.24216e-07
1.83958e-29
1.01826e-23
5.04113e-18
1.80787e-12
4.24207e-07
1.83846e-29
1.01779e-23
5.03941e-18
1.80751e-12
4.2417e-07
1.83838e-29
1.01775e-23
5.03929e-18
1.80748e-12
4.24166e-07
1.83815e-29
1.01766e-23
5.03893e-18
1.80741e-12
4.24157e-07
1.83815e-29
1.01766e-23
5.03893e-18
1.80741e-12
4.24157e-07
1.83838e-29
1.01775e-23
5.03929e-18
1.80748e-12
4.24166e-07
1.83846e-29
1.01779e-23
5.03941e-18
1.80751e-12
4.2417e-07
1.83958e-29
1.01826e-23
5.04113e-18
1.80787e-12
4.24207e-07
1.83985e-29
1.01838e-23
5.04154e-18
1.80795e-12
4.24216e-07
1.84376e-29
1.02e-23
5.04716e-18
1.809e-12
4.24294e-07
1.84442e-29
1.02026e-23
5.04802e-18
1.80912e-12
4.24294e-07
1.85391e-29
1.0237e-23
5.05719e-18
1.80918e-12
4.23777e-07
1.85443e-29
1.02378e-23
5.05671e-18
1.80863e-12
4.23593e-07
1.85346e-29
1.01652e-23
4.99164e-18
1.77267e-12
4.13085e-07
2.93811e-29
1.46089e-23
6.43914e-18
2.02346e-12
4.08811e-07
2.93188e-29
1.46871e-23
6.51668e-18
2.06392e-12
4.19383e-07
2.93095e-29
1.46857e-23
6.51725e-18
2.06456e-12
4.1957e-07
2.91553e-29
1.4635e-23
6.50517e-18
2.0645e-12
4.20105e-07
2.91448e-29
1.46312e-23
6.50407e-18
2.06436e-12
4.20106e-07
2.9083e-29
1.4608e-23
6.49687e-18
2.06318e-12
4.20035e-07
2.90788e-29
1.46064e-23
6.49634e-18
2.06309e-12
4.20026e-07
2.90612e-29
1.45997e-23
6.49416e-18
2.06269e-12
4.19991e-07
2.906e-29
1.45992e-23
6.494e-18
2.06266e-12
4.19987e-07
2.90565e-29
1.45978e-23
6.49355e-18
2.06257e-12
4.19979e-07
2.90565e-29
1.45978e-23
6.49355e-18
2.06257e-12
4.19979e-07
2.906e-29
1.45992e-23
6.494e-18
2.06266e-12
4.19987e-07
2.90612e-29
1.45997e-23
6.49416e-18
2.06269e-12
4.19991e-07
2.90788e-29
1.46064e-23
6.49634e-18
2.06309e-12
4.20026e-07
2.9083e-29
1.4608e-23
6.49687e-18
2.06318e-12
4.20035e-07
2.91448e-29
1.46312e-23
6.50407e-18
2.06436e-12
4.20106e-07
2.91553e-29
1.4635e-23
6.50517e-18
2.0645e-12
4.20105e-07
2.93095e-29
1.46857e-23
6.51725e-18
2.06455e-12
4.1957e-07
2.93188e-29
1.46871e-23
6.51668e-18
2.06392e-12
4.19383e-07
2.93811e-29
1.46089e-23
6.43914e-18
2.02346e-12
4.08811e-07
4.43532e-29
2.01601e-23
8.05642e-18
2.26938e-12
4.04568e-07
4.41717e-29
2.02417e-23
8.14789e-18
2.31445e-12
4.15202e-07
4.41567e-29
2.02395e-23
8.14855e-18
2.31517e-12
4.15392e-07
4.39203e-29
2.01685e-23
8.13335e-18
2.31514e-12
4.15945e-07
4.39046e-29
2.01633e-23
8.13198e-18
2.31499e-12
4.15948e-07
4.38117e-29
2.01315e-23
8.12306e-18
2.3137e-12
4.15882e-07
4.38054e-29
2.01293e-23
8.12241e-18
2.31359e-12
4.15874e-07
4.37792e-29
2.01201e-23
8.11971e-18
2.31315e-12
4.1584e-07
4.37774e-29
2.01194e-23
8.11952e-18
2.31312e-12
4.15836e-07
4.37722e-29
2.01176e-23
8.11896e-18
2.31302e-12
4.15829e-07
4.37722e-29
2.01176e-23
8.11896e-18
2.31302e-12
4.15829e-07
4.37774e-29
2.01194e-23
8.11952e-18
2.31312e-12
4.15836e-07
4.37792e-29
2.01201e-23
8.11971e-18
2.31315e-12
4.1584e-07
4.38054e-29
2.01293e-23
8.12241e-18
2.31359e-12
4.15874e-07
4.38117e-29
2.01315e-23
8.12306e-18
2.3137e-12
4.15882e-07
4.39046e-29
2.01633e-23
8.13198e-18
2.31499e-12
4.15948e-07
4.39203e-29
2.01685e-23
8.13335e-18
2.31514e-12
4.15945e-07
4.41567e-29
2.02395e-23
8.14855e-18
2.31517e-12
4.15392e-07
4.41717e-29
2.02417e-23
8.14789e-18
2.31445e-12
4.15201e-07
4.43532e-29
2.01601e-23
8.05642e-18
2.26938e-12
4.04568e-07
6.43539e-29
2.69273e-23
9.83819e-18
2.51036e-12
4.0035e-07
6.39936e-29
2.70101e-23
9.9452e-18
2.56012e-12
4.11046e-07
6.3971e-29
2.70069e-23
9.94601e-18
2.56093e-12
4.1124e-07
6.3625e-29
2.69116e-23
9.92749e-18
2.56097e-12
4.1181e-07
6.36023e-29
2.69048e-23
9.92585e-18
2.56081e-12
4.11814e-07
6.34684e-29
2.68626e-23
9.91506e-18
2.5594e-12
4.11754e-07
6.34595e-29
2.68597e-23
9.91428e-18
2.55929e-12
4.11746e-07
6.34218e-29
2.68475e-23
9.91104e-18
2.55881e-12
4.11714e-07
6.34193e-29
2.68466e-23
9.9108e-18
2.55877e-12
4.11711e-07
6.34118e-29
2.68442e-23
9.91014e-18
2.55867e-12
4.11703e-07
6.34118e-29
2.68442e-23
9.91014e-18
2.55867e-12
4.11703e-07
6.34193e-29
2.68466e-23
9.9108e-18
2.55877e-12
4.11711e-07
6.34218e-29
2.68475e-23
9.91104e-18
2.55881e-12
4.11714e-07
6.34595e-29
2.68597e-23
9.91428e-18
2.55929e-12
4.11746e-07
6.34684e-29
2.68626e-23
9.91506e-18
2.5594e-12
4.11754e-07
6.36023e-29
2.69048e-23
9.92585e-18
2.56081e-12
4.11814e-07
6.3625e-29
2.69116e-23
9.92749e-18
2.56097e-12
4.1181e-07
6.3971e-29
2.70069e-23
9.94601e-18
2.56093e-12
4.1124e-07
6.39936e-29
2.70101e-23
9.9452e-18
2.56012e-12
4.11046e-07
6.43539e-29
2.69273e-23
9.83819e-18
2.51036e-12
4.0035e-07
9.03625e-29
3.50147e-23
1.17791e-17
2.7463e-12
3.96152e-07
8.97504e-29
3.50965e-23
1.19034e-17
2.80086e-12
4.06908e-07
8.9718e-29
3.50923e-23
1.19044e-17
2.80176e-12
4.07105e-07
8.92304e-29
3.49683e-23
1.18824e-17
2.8019e-12
4.07693e-07
8.91989e-29
3.49595e-23
1.18805e-17
2.80172e-12
4.07698e-07
8.90121e-29
3.49051e-23
1.18677e-17
2.80022e-12
4.07644e-07
8.89998e-29
3.49013e-23
1.18668e-17
2.80009e-12
4.07636e-07
8.89475e-29
3.48857e-23
1.1863e-17
2.79958e-12
4.07606e-07
8.89441e-29
3.48846e-23
1.18627e-17
2.79954e-12
4.07602e-07
8.89337e-29
3.48815e-23
1.18619e-17
2.79943e-12
4.07595e-07
8.89337e-29
3.48815e-23
1.18619e-17
2.79943e-12
4.07595e-07
8.89441e-29
3.48846e-23
1.18627e-17
2.79954e-12
4.07602e-07
8.89475e-29
3.48857e-23
1.1863e-17
2.79958e-12
4.07606e-07
8.89998e-29
3.49013e-23
1.18668e-17
2.80009e-12
4.07636e-07
8.90121e-29
3.4905e-23
1.18677e-17
2.80022e-12
4.07644e-07
8.91989e-29
3.49595e-23
1.18805e-17
2.80172e-12
4.07698e-07
8.92303e-29
3.49683e-23
1.18824e-17
2.8019e-12
4.07693e-07
8.9718e-29
3.50923e-23
1.19044e-17
2.80176e-12
4.07105e-07
8.97504e-29
3.50965e-23
1.19034e-17
2.80086e-12
4.06908e-07
9.03625e-29
3.50147e-23
1.17791e-17
2.7463e-12
3.96152e-07
1.2343e-28
4.45211e-23
1.38735e-17
2.97711e-12
3.91947e-07
1.2248e-28
4.46003e-23
1.4017e-17
3.03655e-12
4.02764e-07
1.22435e-28
4.4595e-23
1.40183e-17
3.03756e-12
4.02964e-07
1.21769e-28
4.44378e-23
1.39928e-17
3.03782e-12
4.0357e-07
1.21727e-28
4.44268e-23
1.39906e-17
3.03764e-12
4.03575e-07
1.21473e-28
4.43582e-23
1.39757e-17
3.03604e-12
4.03527e-07
1.21457e-28
4.43536e-23
1.39747e-17
3.03591e-12
4.03519e-07
1.21386e-28
4.43339e-23
1.39702e-17
3.03537e-12
4.03491e-07
1.21382e-28
4.43326e-23
1.39699e-17
3.03532e-12
4.03487e-07
1.21368e-28
4.43287e-23
1.3969e-17
3.0352e-12
4.03481e-07
1.21368e-28
4.43287e-23
1.3969e-17
3.0352e-12
4.03481e-07
1.21382e-28
4.43326e-23
1.39699e-17
3.03532e-12
4.03487e-07
1.21386e-28
4.43339e-23
1.39702e-17
3.03537e-12
4.03491e-07
1.21457e-28
4.43536e-23
1.39747e-17
3.03591e-12
4.03519e-07
1.21473e-28
4.43582e-23
1.39757e-17
3.03604e-12
4.03527e-07
1.21727e-28
4.44268e-23
1.39906e-17
3.03764e-12
4.03575e-07
1.21769e-28
4.44378e-23
1.39928e-17
3.03782e-12
4.0357e-07
1.22435e-28
4.4595e-23
1.40183e-17
3.03756e-12
4.02964e-07
1.2248e-28
4.46003e-23
1.4017e-17
3.03655e-12
4.02764e-07
1.2343e-28
4.45211e-23
1.38735e-17
2.97711e-12
3.91947e-07
-1.86265e-07
-1.1947e-08
-1.55836e-10
-4.38139e-13
-2.35189e-16
1.84092e-18
1.87685e-18
1.87783e-18
1.87807e-18
1.87811e-18
1.87826e-18
1.87863e-18
1.88098e-18
1.88433e-18
1.91456e-18
1.9438e-18
2.26718e-18
2.45942e-18
7.39329e-18
8.68053e-18
-2.08633e-07
-1.34732e-08
-1.8007e-10
-5.20553e-13
-2.88466e-16
1.83433e-18
1.87681e-18
1.87782e-18
1.87805e-18
1.87808e-18
1.87808e-18
1.8784e-18
1.88078e-18
1.88418e-18
1.91483e-18
1.94434e-18
2.27117e-18
2.46454e-18
7.44662e-18
8.74497e-18
-2.0926e-07
-1.351e-08
-1.80547e-10
-5.21999e-13
-2.89367e-16
1.83422e-18
1.87681e-18
1.87782e-18
1.87805e-18
1.87808e-18
1.87809e-18
1.87841e-18
1.8808e-18
1.8842e-18
1.91485e-18
1.94438e-18
2.27125e-18
2.46463e-18
7.44713e-18
8.74548e-18
-2.11501e-07
-1.3637e-08
-1.82029e-10
-5.26081e-13
-2.91769e-16
1.83393e-18
1.87682e-18
1.87782e-18
1.87806e-18
1.87808e-18
1.87811e-18
1.87847e-18
1.88087e-18
1.88427e-18
1.91494e-18
1.94448e-18
2.27149e-18
2.4649e-18
7.44851e-18
8.74675e-18
-2.11589e-07
-1.36415e-08
-1.82075e-10
-5.26192e-13
-2.91828e-16
1.83392e-18
1.87682e-18
1.87782e-18
1.87806e-18
1.87808e-18
1.87811e-18
1.87848e-18
1.88087e-18
1.88427e-18
1.91495e-18
1.94449e-18
2.2715e-18
2.46491e-18
7.44855e-18
8.74677e-18
-2.11794e-07
-1.36501e-08
-1.82149e-10
-5.2635e-13
-2.91904e-16
1.83391e-18
1.87682e-18
1.87782e-18
1.87806e-18
1.87808e-18
1.87812e-18
1.87848e-18
1.88087e-18
1.88427e-18
1.91495e-18
1.94449e-18
2.27151e-18
2.46492e-18
7.44859e-18
8.7468e-18
-2.11806e-07
-1.36504e-08
-1.8215e-10
-5.26345e-13
-2.919e-16
1.83391e-18
1.87682e-18
1.87782e-18
1.87806e-18
1.87808e-18
1.87812e-18
1.87848e-18
1.88087e-18
1.88427e-18
1.91495e-18
1.94449e-18
2.27151e-18
2.46492e-18
7.44859e-18
8.7468e-18
-2.11833e-07
-1.36509e-08
-1.82148e-10
-5.26332e-13
-2.9189e-16
1.83391e-18
1.87682e-18
1.87782e-18
1.87806e-18
1.87808e-18
1.87812e-18
1.87848e-18
1.88087e-18
1.88427e-18
1.91495e-18
1.94449e-18
2.27151e-18
2.46492e-18
7.44859e-18
8.7468e-18
-2.11834e-07
-1.36508e-08
-1.82147e-10
-5.26326e-13
-2.91886e-16
1.83391e-18
1.87682e-18
1.87782e-18
1.87806e-18
1.87808e-18
1.87812e-18
1.87848e-18
1.88087e-18
1.88427e-18
1.91495e-18
1.94449e-18
2.27151e-18
2.46492e-18
7.44859e-18
8.7468e-18
-2.11837e-07
-1.36508e-08
-1.82145e-10
-5.2632e-13
-2.91883e-16
1.83391e-18
1.87682e-18
1.87782e-18
1.87806e-18
1.87808e-18
1.87812e-18
1.87848e-18
1.88087e-18
1.88427e-18
1.91495e-18
1.94449e-18
2.27151e-18
2.46492e-18
7.44859e-18
8.7468e-18
-2.11837e-07
-1.36508e-08
-1.82145e-10
-5.2632e-13
-2.91883e-16
1.83391e-18
1.87682e-18
1.87782e-18
1.87806e-18
1.87808e-18
1.87812e-18
1.87848e-18
1.88087e-18
1.88427e-18
1.91495e-18
1.94449e-18
2.27151e-18
2.46492e-18
7.44859e-18
8.7468e-18
-2.11834e-07
-1.36508e-08
-1.82147e-10
-5.26326e-13
-2.91886e-16
1.83391e-18
1.87682e-18
1.87782e-18
1.87806e-18
1.87808e-18
1.87812e-18
1.87848e-18
1.88087e-18
1.88427e-18
1.91495e-18
1.94449e-18
2.27151e-18
2.46492e-18
7.44859e-18
8.7468e-18
-2.11833e-07
-1.36509e-08
-1.82148e-10
-5.26332e-13
-2.9189e-16
1.83391e-18
1.87682e-18
1.87782e-18
1.87806e-18
1.87808e-18
1.87812e-18
1.87848e-18
1.88087e-18
1.88427e-18
1.91495e-18
1.94449e-18
2.27151e-18
2.46492e-18
7.44859e-18
8.7468e-18
-2.11806e-07
-1.36504e-08
-1.8215e-10
-5.26345e-13
-2.919e-16
1.83391e-18
1.87682e-18
1.87782e-18
1.87806e-18
1.87808e-18
1.87812e-18
1.87848e-18
1.88087e-18
1.88427e-18
1.91495e-18
1.94449e-18
2.27151e-18
2.46492e-18
7.44859e-18
8.7468e-18
-2.11794e-07
-1.36501e-08
-1.82149e-10
-5.2635e-13
-2.91904e-16
1.83391e-18
1.87682e-18
1.87782e-18
1.87806e-18
1.87808e-18
1.87812e-18
1.87848e-18
1.88087e-18
1.88427e-18
1.91495e-18
1.94449e-18
2.27151e-18
2.46492e-18
7.44859e-18
8.7468e-18
-2.11589e-07
-1.36415e-08
-1.82075e-10
-5.26192e-13
-2.91828e-16
1.83392e-18
1.87682e-18
1.87782e-18
1.87806e-18
1.87808e-18
1.87811e-18
1.87848e-18
1.88087e-18
1.88427e-18
1.91495e-18
1.94449e-18
2.2715e-18
2.46491e-18
7.44855e-18
8.74677e-18
-2.11501e-07
-1.3637e-08
-1.82029e-10
-5.26081e-13
-2.91769e-16
1.83393e-18
1.87682e-18
1.87782e-18
1.87806e-18
1.87808e-18
1.87811e-18
1.87847e-18
1.88087e-18
1.88427e-18
1.91494e-18
1.94448e-18
2.27149e-18
2.4649e-18
7.44851e-18
8.74675e-18
-2.0926e-07
-1.351e-08
-1.80547e-10
-5.21999e-13
-2.89367e-16
1.83422e-18
1.87681e-18
1.87782e-18
1.87805e-18
1.87808e-18
1.87809e-18
1.87841e-18
1.8808e-18
1.8842e-18
1.91485e-18
1.94438e-18
2.27125e-18
2.46463e-18
7.44713e-18
8.74548e-18
-2.08633e-07
-1.34732e-08
-1.8007e-10
-5.20553e-13
-2.88466e-16
1.83433e-18
1.87681e-18
1.87782e-18
1.87805e-18
1.87808e-18
1.87808e-18
1.8784e-18
1.88078e-18
1.88418e-18
1.91483e-18
1.94434e-18
2.27117e-18
2.46454e-18
7.44662e-18
8.74497e-18
-1.86265e-07
-1.1947e-08
-1.55836e-10
-4.38139e-13
-2.35189e-16
1.84092e-18
1.87685e-18
1.87783e-18
1.87807e-18
1.87811e-18
1.87826e-18
1.87863e-18
1.88098e-18
1.88433e-18
1.91456e-18
1.9438e-18
2.26718e-18
2.45942e-18
7.39329e-18