/*--------------------------------*- C++ -*----------------------------------*\
  =========                 |
  \\      /  F ield         | OpenFOAM: The Open Source CFD Toolbox
   \\    /   O peration     | Website:  https://openfoam.org
    \\  /    A nd           | Version:  8
     \\/     M anipulation  |
\*---------------------------------------------------------------------------*/
FoamFile
{
    version     2.0;
    format      ascii;
    class       volScalarField;
    location    "1.2";
    object      p;
}
// * * * * * * * * * * * * * * * * * * * * * * * * * * * * * * * * * * * * * //

dimensions      [0 2 -2 0 0 0 0];

internalField   nonuniform List<scalar> 
180000
(
0.00111467
0.00103932
0.00109426
0.000917885
0.0010175
0.00110022
0.00102521
0.0010798
0.000905058
0.00100324
0.00109977
0.00102478
0.00107935
0.000904692
0.00100282
0.00109693
0.00102205
0.00107651
0.000902325
0.00100016
0.00109677
0.0010219
0.00107635
0.000902193
0.00100001
0.00109603
0.00102118
0.0010756
0.000901573
0.000999305
0.00109598
0.00102113
0.00107555
0.000901532
0.000999256
0.00109578
0.00102095
0.00107535
0.000901367
0.00099907
0.00109577
0.00102093
0.00107534
0.000901356
0.000999058
0.00109573
0.0010209
0.0010753
0.000901324
0.000999021
0.00109573
0.0010209
0.0010753
0.000901324
0.000999021
0.00109577
0.00102093
0.00107534
0.000901356
0.000999058
0.00109578
0.00102095
0.00107535
0.000901367
0.00099907
0.00109598
0.00102113
0.00107555
0.000901532
0.000999256
0.00109603
0.00102118
0.0010756
0.000901573
0.000999305
0.00109677
0.0010219
0.00107635
0.000902193
0.00100001
0.00109693
0.00102205
0.00107651
0.000902325
0.00100016
0.00109977
0.00102478
0.00107935
0.000904692
0.00100282
0.00110022
0.00102521
0.0010798
0.000905058
0.00100324
0.00111467
0.00103932
0.00109426
0.000917885
0.0010175
0.00080089
0.000783412
0.0007972
0.000741178
0.000777729
0.000798067
0.000779453
0.000794048
0.000735862
0.000773369
0.000797978
0.000779332
0.000793949
0.000735709
0.000773238
0.000797369
0.000778511
0.000793274
0.000734678
0.00077237
0.000797335
0.000778466
0.000793236
0.000734621
0.000772321
0.00079717
0.000778246
0.000793053
0.000734348
0.000772088
0.000797159
0.000778232
0.000793041
0.00073433
0.000772072
0.000797115
0.000778173
0.000792992
0.000734257
0.000772009
0.000797112
0.00077817
0.000792989
0.000734252
0.000772005
0.000797104
0.000778158
0.000792979
0.000734237
0.000771992
0.000797104
0.000778158
0.000792979
0.000734237
0.000771992
0.000797112
0.00077817
0.000792989
0.000734252
0.000772005
0.000797115
0.000778173
0.000792992
0.000734257
0.000772009
0.000797159
0.000778232
0.000793041
0.00073433
0.000772072
0.00079717
0.000778246
0.000793053
0.000734348
0.000772088
0.000797335
0.000778466
0.000793236
0.000734621
0.000772321
0.000797369
0.000778511
0.000793274
0.000734678
0.00077237
0.000797978
0.000779332
0.000793949
0.000735709
0.000773238
0.000798067
0.000779453
0.000794048
0.000735862
0.000773369
0.00080089
0.000783412
0.0007972
0.000741178
0.000777729
0.000589459
0.000570753
0.000585623
0.000532548
0.000568554
0.000586219
0.000566937
0.000582202
0.000528216
0.000564511
0.000586118
0.000566822
0.000582096
0.000528092
0.000564391
0.000585416
0.000566018
0.000581357
0.000527229
0.000563568
0.000585378
0.000565974
0.000581316
0.000527182
0.000563522
0.000585188
0.000565758
0.000581116
0.000526951
0.0005633
0.000585176
0.000565744
0.000581103
0.000526936
0.000563285
0.000585125
0.000565687
0.000581049
0.000526874
0.000563225
0.000585121
0.000565683
0.000581045
0.00052687
0.000563221
0.000585111
0.000565671
0.000581034
0.000526857
0.000563209
0.000585111
0.000565671
0.000581034
0.000526857
0.000563209
0.000585121
0.000565683
0.000581045
0.00052687
0.000563221
0.000585125
0.000565687
0.000581049
0.000526874
0.000563225
0.000585176
0.000565744
0.000581103
0.000526936
0.000563285
0.000585188
0.000565758
0.000581116
0.000526951
0.0005633
0.000585378
0.000565974
0.000581316
0.000527182
0.000563522
0.000585416
0.000566018
0.000581357
0.000527229
0.000563568
0.000586118
0.000566822
0.000582096
0.000528092
0.000564391
0.000586219
0.000566937
0.000582202
0.000528216
0.000564511
0.000589459
0.000570753
0.000585623
0.000532548
0.000568554
0.000578992
0.000550223
0.00057264
0.000499709
0.000549171
0.00057368
0.000544799
0.000567271
0.000494443
0.000543646
0.000573513
0.000544634
0.000567104
0.000494292
0.00054348
0.000572391
0.000543504
0.000565968
0.000493238
0.00054236
0.000572329
0.000543442
0.000565905
0.000493181
0.000542298
0.000572029
0.000543141
0.0005656
0.0004929
0.000541997
0.000572009
0.000543121
0.00056558
0.000492882
0.000541976
0.000571929
0.00054304
0.000565498
0.000492806
0.000541895
0.000571924
0.000543035
0.000565493
0.000492801
0.00054189
0.000571908
0.000543019
0.000565476
0.000492786
0.000541874
0.000571908
0.000543019
0.000565476
0.000492786
0.000541874
0.000571924
0.000543035
0.000565493
0.000492801
0.00054189
0.000571929
0.00054304
0.000565498
0.000492806
0.000541895
0.000572009
0.000543121
0.00056558
0.000492882
0.000541976
0.000572029
0.000543141
0.0005656
0.0004929
0.000541997
0.000572329
0.000543442
0.000565905
0.000493181
0.000542298
0.000572391
0.000543504
0.000565968
0.000493238
0.00054236
0.000573513
0.000544634
0.000567104
0.000494292
0.00054348
0.00057368
0.000544799
0.000567271
0.000494443
0.000543646
0.000578992
0.000550223
0.00057264
0.000499709
0.000549171
0.000607192
0.000577033
0.000600902
0.000523479
0.000578991
0.000601659
0.000571362
0.000595307
0.000517946
0.000573253
0.000601484
0.000571188
0.000595131
0.000517785
0.000573079
0.000600293
0.000569984
0.000593925
0.000516657
0.000571889
0.000600227
0.000569918
0.000593858
0.000516596
0.000571823
0.000599908
0.000569597
0.000593534
0.000516295
0.000571502
0.000599887
0.000569576
0.000593512
0.000516275
0.000571481
0.000599802
0.000569489
0.000593425
0.000516194
0.000571394
0.000599796
0.000569484
0.000593419
0.000516188
0.000571389
0.000599779
0.000569467
0.000593402
0.000516172
0.000571371
0.000599779
0.000569467
0.000593402
0.000516172
0.000571371
0.000599796
0.000569484
0.000593419
0.000516188
0.000571389
0.000599802
0.000569489
0.000593425
0.000516194
0.000571394
0.000599887
0.000569576
0.000593512
0.000516275
0.000571481
0.000599908
0.000569597
0.000593534
0.000516295
0.000571502
0.000600227
0.000569918
0.000593858
0.000516596
0.000571823
0.000600293
0.000569984
0.000593925
0.000516657
0.000571889
0.000601484
0.000571188
0.000595131
0.000517785
0.000573079
0.000601659
0.000571362
0.000595307
0.000517946
0.000573253
0.000607192
0.000577033
0.000600902
0.000523479
0.000578991
0.000616844
0.000588318
0.00061145
0.000536383
0.000594454
0.000611685
0.000582949
0.000606214
0.000531038
0.000589041
0.00061152
0.000582783
0.000606047
0.000530882
0.000588875
0.000610378
0.000581612
0.000604887
0.000529764
0.000587716
0.000610315
0.000581549
0.000604823
0.000529704
0.000587651
0.000610007
0.000581234
0.000604509
0.000529405
0.000587338
0.000609987
0.000581214
0.000604488
0.000529385
0.000587317
0.000609904
0.000581129
0.000604403
0.000529304
0.000587232
0.000609899
0.000581124
0.000604398
0.000529298
0.000587226
0.000609882
0.000581107
0.000604381
0.000529282
0.000587209
0.000609882
0.000581107
0.000604381
0.000529282
0.000587209
0.000609899
0.000581124
0.000604398
0.000529298
0.000587226
0.000609904
0.000581129
0.000604403
0.000529304
0.000587232
0.000609987
0.000581214
0.000604488
0.000529385
0.000587317
0.000610007
0.000581234
0.000604509
0.000529405
0.000587338
0.000610315
0.000581549
0.000604823
0.000529704
0.000587651
0.000610378
0.000581612
0.000604887
0.000529764
0.000587716
0.00061152
0.000582783
0.000606047
0.000530882
0.000588875
0.000611685
0.000582949
0.000606214
0.000531038
0.000589041
0.000616844
0.000588318
0.00061145
0.000536383
0.000594454
0.000614344
0.000586883
0.000609654
0.000536433
0.000597417
0.000609425
0.000581744
0.00060466
0.000531288
0.000592267
0.000609267
0.000581584
0.0006045
0.000531137
0.000592106
0.00060815
0.000580437
0.000603365
0.000530034
0.000590969
0.000608089
0.000580375
0.000603303
0.000529975
0.000590906
0.000607786
0.000580065
0.000602994
0.000529678
0.000590597
0.000607767
0.000580045
0.000602973
0.000529659
0.000590576
0.000607685
0.000579961
0.000602889
0.000529578
0.000590492
0.000607679
0.000579956
0.000602884
0.000529573
0.000590486
0.000607663
0.000579939
0.000602867
0.000529557
0.000590469
0.000607663
0.000579939
0.000602867
0.000529557
0.000590469
0.000607679
0.000579956
0.000602884
0.000529573
0.000590486
0.000607685
0.000579961
0.000602889
0.000529578
0.000590492
0.000607767
0.000580045
0.000602973
0.000529659
0.000590576
0.000607786
0.000580065
0.000602994
0.000529678
0.000590597
0.000608089
0.000580375
0.000603303
0.000529975
0.000590906
0.00060815
0.000580437
0.000603365
0.000530034
0.000590969
0.000609267
0.000581584
0.0006045
0.000531137
0.000592106
0.000609425
0.000581744
0.00060466
0.000531288
0.000592267
0.000614344
0.000586883
0.000609654
0.000536433
0.000597417
0.000611052
0.000583916
0.000606844
0.000534114
0.00059855
0.00060622
0.000578882
0.000601946
0.000529085
0.000593535
0.000606064
0.000578725
0.000601789
0.000528937
0.000593378
0.000604945
0.000577577
0.000600652
0.000527835
0.00059224
0.000604884
0.000577515
0.00060059
0.000527777
0.000592178
0.000604579
0.000577204
0.000600279
0.000527479
0.000591867
0.000604559
0.000577184
0.000600259
0.00052746
0.000591846
0.000604476
0.000577099
0.000600174
0.000527378
0.000591761
0.000604471
0.000577094
0.000600168
0.000527373
0.000591756
0.000604454
0.000577077
0.000600151
0.000527356
0.000591738
0.000604454
0.000577077
0.000600151
0.000527356
0.000591738
0.000604471
0.000577094
0.000600168
0.000527373
0.000591756
0.000604476
0.000577099
0.000600174
0.000527378
0.000591761
0.000604559
0.000577184
0.000600259
0.00052746
0.000591846
0.000604579
0.000577204
0.000600279
0.000527479
0.000591867
0.000604884
0.000577515
0.00060059
0.000527777
0.000592178
0.000604945
0.000577577
0.000600652
0.000527835
0.00059224
0.000606064
0.000578725
0.000601789
0.000528937
0.000593378
0.00060622
0.000578882
0.000601946
0.000529085
0.000593535
0.000611052
0.000583916
0.000606844
0.000534114
0.00059855
0.000609578
0.000582629
0.000605807
0.000533297
0.000600843
0.000604809
0.000577671
0.000600979
0.000528354
0.000595923
0.000604654
0.000577515
0.000600823
0.000528207
0.000595767
0.000603527
0.000576362
0.00059968
0.000527102
0.000594624
0.000603467
0.0005763
0.000599618
0.000527043
0.000594562
0.000603158
0.000575986
0.000599304
0.000526743
0.000594248
0.000603138
0.000575966
0.000599283
0.000526724
0.000594227
0.000603054
0.00057588
0.000599197
0.000526641
0.000594141
0.000603049
0.000575875
0.000599192
0.000526636
0.000594136
0.000603032
0.000575858
0.000599174
0.000526619
0.000594118
0.000603032
0.000575858
0.000599174
0.000526619
0.000594118
0.000603049
0.000575875
0.000599192
0.000526636
0.000594136
0.000603054
0.00057588
0.000599197
0.000526641
0.000594141
0.000603138
0.000575966
0.000599283
0.000526724
0.000594227
0.000603158
0.000575986
0.000599304
0.000526743
0.000594248
0.000603467
0.0005763
0.000599618
0.000527043
0.000594562
0.000603527
0.000576362
0.00059968
0.000527102
0.000594624
0.000604654
0.000577515
0.000600823
0.000528207
0.000595767
0.000604809
0.000577671
0.000600979
0.000528354
0.000595923
0.000609578
0.000582629
0.000605807
0.000533297
0.000600843
0.000608865
0.000582182
0.000605542
0.000533479
0.000603355
0.000604175
0.000577311
0.0006008
0.000528623
0.000598526
0.000604022
0.000577158
0.000600646
0.000528478
0.000598371
0.000602892
0.000576002
0.0005995
0.000527369
0.000597224
0.000602832
0.000575941
0.000599439
0.000527311
0.000597162
0.000602521
0.000575625
0.000599122
0.000527008
0.000596845
0.000602501
0.000575605
0.000599101
0.000526989
0.000596825
0.000602416
0.000575518
0.000599014
0.000526906
0.000596738
0.00060241
0.000575512
0.000599009
0.000526901
0.000596732
0.000602393
0.000575495
0.000598991
0.000526884
0.000596714
0.000602393
0.000575495
0.000598991
0.000526884
0.000596714
0.00060241
0.000575512
0.000599009
0.000526901
0.000596732
0.000602416
0.000575518
0.000599014
0.000526906
0.000596738
0.000602501
0.000575605
0.000599101
0.000526989
0.000596825
0.000602521
0.000575625
0.000599122
0.000527008
0.000596845
0.000602832
0.000575941
0.000599439
0.000527311
0.000597162
0.000602892
0.000576002
0.0005995
0.000527369
0.000597224
0.000604022
0.000577158
0.000600646
0.000528478
0.000598371
0.000604175
0.000577311
0.0006008
0.000528623
0.000598526
0.000608865
0.000582182
0.000605542
0.000533479
0.000603355
0.000608109
0.000581737
0.000605234
0.000533796
0.000605013
0.000603508
0.000576961
0.000600586
0.000529031
0.000600258
0.000603357
0.00057681
0.000600434
0.000528888
0.000600105
0.000602227
0.000575654
0.000599288
0.000527778
0.000598953
0.000602166
0.000575593
0.000599227
0.00052772
0.000598891
0.000601853
0.000575275
0.000598908
0.000527416
0.000598571
0.000601834
0.000575255
0.000598888
0.000527397
0.00059855
0.000601747
0.000575168
0.0005988
0.000527313
0.000598462
0.000601742
0.000575163
0.000598795
0.000527307
0.000598456
0.000601725
0.000575145
0.000598777
0.00052729
0.000598438
0.000601725
0.000575145
0.000598777
0.00052729
0.000598438
0.000601742
0.000575163
0.000598795
0.000527307
0.000598456
0.000601747
0.000575168
0.0005988
0.000527313
0.000598462
0.000601834
0.000575255
0.000598888
0.000527397
0.00059855
0.000601853
0.000575275
0.000598908
0.000527416
0.000598571
0.000602166
0.000575593
0.000599227
0.00052772
0.000598891
0.000602227
0.000575654
0.000599288
0.000527778
0.000598953
0.000603357
0.00057681
0.000600434
0.000528888
0.000600105
0.000603508
0.000576961
0.000600586
0.000529031
0.000600258
0.000608109
0.000581737
0.000605234
0.000533796
0.000605013
0.000607226
0.000581158
0.000604782
0.000533984
0.000603286
0.000602711
0.000576475
0.000600225
0.000529309
0.00059861
0.000602562
0.000576326
0.000600076
0.000529168
0.000598459
0.000601431
0.000575171
0.00059893
0.000528058
0.000597306
0.000601372
0.00057511
0.000598869
0.000528
0.000597244
0.000601057
0.000574791
0.000598549
0.000527694
0.000596923
0.000601037
0.000574771
0.000598529
0.000527675
0.000596902
0.00060095
0.000574683
0.00059844
0.00052759
0.000596813
0.000600945
0.000574677
0.000598434
0.000527585
0.000596807
0.000600927
0.000574659
0.000598416
0.000527567
0.000596789
0.000600927
0.000574659
0.000598416
0.000527567
0.000596789
0.000600945
0.000574677
0.000598434
0.000527585
0.000596807
0.00060095
0.000574683
0.00059844
0.00052759
0.000596813
0.000601037
0.000574771
0.000598529
0.000527675
0.000596902
0.000601057
0.000574791
0.000598549
0.000527694
0.000596923
0.000601372
0.00057511
0.000598869
0.000528
0.000597244
0.000601431
0.000575171
0.00059893
0.000528058
0.000597306
0.000602562
0.000576326
0.000600076
0.000529168
0.000598459
0.000602711
0.000576475
0.000600225
0.000529309
0.00059861
0.000607226
0.000581158
0.000604782
0.000533984
0.000603286
0.000606323
0.000580544
0.000604291
0.00053403
0.000600598
0.000601891
0.00057595
0.000599822
0.000529444
0.000596004
0.000601745
0.000575803
0.000599675
0.000529305
0.000595855
0.000600613
0.000574648
0.00059853
0.000528194
0.000594703
0.000600554
0.000574588
0.000598469
0.000528137
0.000594642
0.000600237
0.000574267
0.000598148
0.000527829
0.000594319
0.000600218
0.000574247
0.000598127
0.00052781
0.000594298
0.00060013
0.000574158
0.000598038
0.000527725
0.000594208
0.000600124
0.000574153
0.000598032
0.000527719
0.000594203
0.000600107
0.000574135
0.000598014
0.000527702
0.000594184
0.000600107
0.000574135
0.000598014
0.000527702
0.000594184
0.000600124
0.000574153
0.000598032
0.000527719
0.000594203
0.00060013
0.000574158
0.000598038
0.000527725
0.000594208
0.000600218
0.000574247
0.000598127
0.00052781
0.000594298
0.000600237
0.000574267
0.000598148
0.000527829
0.000594319
0.000600554
0.000574588
0.000598469
0.000528137
0.000594642
0.000600613
0.000574648
0.00059853
0.000528194
0.000594703
0.000601745
0.000575803
0.000599675
0.000529305
0.000595855
0.000601891
0.00057595
0.000599822
0.000529444
0.000596004
0.000606323
0.000580544
0.000604291
0.00053403
0.000600598
0.000605452
0.000579951
0.000603817
0.000533981
0.000598195
0.0006011
0.000575443
0.000599433
0.000529482
0.00059368
0.000600956
0.000575299
0.000599288
0.000529345
0.000593533
0.000599825
0.000574145
0.000598144
0.000528234
0.000592383
0.000599766
0.000574085
0.000598083
0.000528177
0.000592321
0.000599448
0.000573763
0.00059776
0.000527868
0.000591997
0.000599428
0.000573743
0.000597739
0.000527849
0.000591976
0.000599339
0.000573653
0.000597649
0.000527763
0.000591886
0.000599334
0.000573648
0.000597644
0.000527757
0.00059188
0.000599316
0.00057363
0.000597625
0.000527739
0.000591862
0.000599316
0.00057363
0.000597625
0.000527739
0.000591862
0.000599334
0.000573648
0.000597644
0.000527757
0.00059188
0.000599339
0.000573653
0.000597649
0.000527763
0.000591886
0.000599428
0.000573743
0.000597739
0.000527849
0.000591976
0.000599448
0.000573763
0.00059776
0.000527868
0.000591997
0.000599766
0.000574085
0.000598083
0.000528177
0.000592321
0.000599825
0.000574145
0.000598144
0.000528234
0.000592383
0.000600956
0.000575299
0.000599288
0.000529345
0.000593533
0.0006011
0.000575443
0.000599433
0.000529482
0.00059368
0.000605452
0.000579951
0.000603817
0.000533981
0.000598195
0.000604611
0.000579381
0.000603359
0.000533856
0.000596074
0.000600338
0.000574959
0.000599059
0.000529441
0.000591636
0.000600196
0.000574816
0.000598916
0.000529307
0.000591492
0.000599065
0.000573663
0.000597772
0.000528197
0.000590342
0.000599006
0.000573604
0.000597712
0.00052814
0.000590282
0.000598687
0.00057328
0.000597388
0.00052783
0.000589956
0.000598667
0.00057326
0.000597367
0.00052781
0.000589935
0.000598577
0.00057317
0.000597276
0.000527724
0.000589844
0.000598572
0.000573165
0.000597271
0.000527718
0.000589838
0.000598554
0.000573146
0.000597252
0.0005277
0.000589819
0.000598554
0.000573146
0.000597252
0.0005277
0.000589819
0.000598572
0.000573165
0.000597271
0.000527718
0.000589838
0.000598577
0.00057317
0.000597276
0.000527724
0.000589844
0.000598667
0.00057326
0.000597367
0.00052781
0.000589935
0.000598687
0.00057328
0.000597388
0.00052783
0.000589956
0.000599006
0.000573604
0.000597712
0.00052814
0.000590282
0.000599065
0.000573663
0.000597772
0.000528197
0.000590342
0.000600196
0.000574816
0.000598916
0.000529307
0.000591492
0.000600338
0.000574959
0.000599059
0.000529441
0.000591636
0.000604611
0.000579381
0.000603359
0.000533856
0.000596074
0.000603789
0.000578826
0.00060291
0.000533655
0.000594019
0.000599594
0.000574486
0.000598692
0.000529324
0.000589656
0.000599453
0.000574346
0.000598551
0.000529191
0.000589514
0.000598323
0.000573194
0.000597409
0.000528082
0.000588366
0.000598265
0.000573136
0.000597349
0.000528026
0.000588306
0.000597944
0.000572811
0.000597023
0.000527715
0.000587979
0.000597924
0.000572791
0.000597003
0.000527695
0.000587958
0.000597834
0.0005727
0.000596911
0.000527608
0.000587866
0.000597829
0.000572694
0.000596905
0.000527603
0.000587861
0.00059781
0.000572676
0.000596886
0.000527584
0.000587842
0.00059781
0.000572676
0.000596886
0.000527584
0.000587842
0.000597829
0.000572694
0.000596905
0.000527603
0.000587861
0.000597834
0.0005727
0.000596911
0.000527608
0.000587866
0.000597924
0.000572791
0.000597003
0.000527695
0.000587958
0.000597944
0.000572811
0.000597023
0.000527715
0.000587979
0.000598265
0.000573136
0.000597349
0.000528026
0.000588306
0.000598323
0.000573194
0.000597409
0.000528082
0.000588366
0.000599453
0.000574346
0.000598551
0.000529191
0.000589514
0.000599594
0.000574486
0.000598692
0.000529324
0.000589656
0.000603789
0.000578826
0.00060291
0.000533655
0.000594019
0.000602984
0.000578281
0.000602468
0.000533375
0.000591957
0.000598864
0.000574022
0.00059833
0.000529127
0.000587667
0.000598726
0.000573884
0.000598191
0.000528996
0.000587527
0.000597597
0.000572734
0.00059705
0.000527889
0.000586382
0.000597539
0.000572676
0.000596991
0.000527833
0.000586322
0.000597217
0.00057235
0.000596664
0.000527521
0.000585994
0.000597197
0.00057233
0.000596643
0.000527502
0.000585973
0.000597106
0.000572238
0.000596551
0.000527414
0.000585881
0.000597101
0.000572233
0.000596545
0.000527408
0.000585875
0.000597082
0.000572214
0.000596526
0.00052739
0.000585856
0.000597082
0.000572214
0.000596526
0.00052739
0.000585856
0.000597101
0.000572233
0.000596545
0.000527408
0.000585875
0.000597106
0.000572238
0.000596551
0.000527414
0.000585881
0.000597197
0.00057233
0.000596643
0.000527502
0.000585973
0.000597217
0.00057235
0.000596664
0.000527521
0.000585994
0.000597539
0.000572676
0.000596991
0.000527833
0.000586322
0.000597597
0.000572734
0.00059705
0.000527889
0.000586382
0.000598726
0.000573884
0.000598191
0.000528996
0.000587527
0.000598864
0.000574022
0.00059833
0.000529127
0.000587667
0.000602984
0.000578281
0.000602468
0.000533375
0.000591957
0.000602196
0.000577747
0.000602034
0.000533019
0.000589902
0.000598149
0.000573567
0.000597974
0.000528851
0.000585683
0.000598013
0.000573431
0.000597838
0.000528723
0.000585546
0.000596886
0.000572283
0.000596699
0.000527618
0.000584403
0.000596828
0.000572225
0.00059664
0.000527563
0.000584344
0.000596505
0.000571898
0.000596311
0.000527249
0.000584015
0.000596485
0.000571878
0.000596291
0.00052723
0.000583994
0.000596394
0.000571786
0.000596198
0.000527141
0.000583901
0.000596388
0.000571781
0.000596192
0.000527136
0.000583895
0.000596369
0.000571762
0.000596173
0.000527118
0.000583876
0.000596369
0.000571762
0.000596173
0.000527118
0.000583876
0.000596388
0.000571781
0.000596192
0.000527136
0.000583895
0.000596394
0.000571786
0.000596198
0.000527141
0.000583901
0.000596485
0.000571878
0.000596291
0.00052723
0.000583994
0.000596505
0.000571898
0.000596311
0.000527249
0.000584015
0.000596828
0.000572225
0.00059664
0.000527563
0.000584344
0.000596886
0.000572283
0.000596699
0.000527618
0.000584403
0.000598013
0.000573431
0.000597838
0.000528723
0.000585546
0.000598149
0.000573567
0.000597974
0.000528851
0.000585683
0.000602196
0.000577747
0.000602034
0.000533019
0.000589902
0.000601424
0.000577224
0.00060161
0.000532586
0.000587871
0.00059745
0.000573122
0.000597627
0.000528499
0.000583721
0.000597316
0.000572988
0.000597493
0.000528372
0.000583586
0.000596191
0.000571842
0.000596356
0.00052727
0.000582447
0.000596134
0.000571785
0.000596298
0.000527215
0.000582388
0.000595809
0.000571457
0.000595968
0.000526901
0.000582058
0.000595789
0.000571437
0.000595948
0.000526882
0.000582037
0.000595697
0.000571344
0.000595854
0.000526793
0.000581943
0.000595691
0.000571339
0.000595849
0.000526787
0.000581937
0.000595672
0.00057132
0.000595829
0.000526769
0.000581918
0.000595672
0.00057132
0.000595829
0.000526769
0.000581918
0.000595691
0.000571339
0.000595849
0.000526787
0.000581937
0.000595697
0.000571344
0.000595854
0.000526793
0.000581943
0.000595789
0.000571437
0.000595948
0.000526882
0.000582037
0.000595809
0.000571457
0.000595968
0.000526901
0.000582058
0.000596134
0.000571785
0.000596298
0.000527215
0.000582388
0.000596191
0.000571842
0.000596356
0.00052727
0.000582447
0.000597316
0.000572988
0.000597493
0.000528372
0.000583586
0.00059745
0.000573122
0.000597627
0.000528499
0.000583721
0.000601424
0.000577224
0.00060161
0.000532586
0.000587871
0.000600669
0.000576713
0.000601198
0.000532078
0.000585774
0.000596766
0.000572686
0.00059729
0.000528069
0.000581693
0.000596634
0.000572554
0.000597158
0.000527945
0.00058156
0.000595511
0.000571412
0.000596024
0.000526846
0.000580425
0.000595454
0.000571355
0.000595966
0.000526791
0.000580366
0.000595128
0.000571026
0.000595635
0.000526476
0.000580035
0.000595109
0.000571006
0.000595615
0.000526457
0.000580014
0.000595016
0.000570913
0.000595521
0.000526368
0.00057992
0.00059501
0.000570907
0.000595515
0.000526363
0.000579914
0.000594991
0.000570888
0.000595495
0.000526344
0.000579894
0.000594991
0.000570888
0.000595495
0.000526344
0.000579894
0.00059501
0.000570907
0.000595515
0.000526363
0.000579914
0.000595016
0.000570913
0.000595521
0.000526368
0.00057992
0.000595109
0.000571006
0.000595615
0.000526457
0.000580014
0.000595128
0.000571026
0.000595635
0.000526476
0.000580035
0.000595454
0.000571355
0.000595966
0.000526791
0.000580366
0.000595511
0.000571412
0.000596024
0.000526846
0.000580425
0.000596634
0.000572554
0.000597158
0.000527945
0.00058156
0.000596766
0.000572686
0.00059729
0.000528069
0.000581693
0.000600669
0.000576713
0.000601198
0.000532078
0.000585774
-1.83269e-05
1.85571e-05
4.20687e-06
9.32408e-07
3.0331e-07
1.89309e-07
1.67187e-07
1.62816e-07
1.61874e-07
1.61672e-07
1.61617e-07
1.61595e-07
1.61501e-07
1.61394e-07
1.60535e-07
1.5987e-07
1.5344e-07
1.50669e-07
1.1193e-07
1.07823e-07
-1.85223e-05
1.85742e-05
4.26501e-06
9.47427e-07
3.06523e-07
1.89984e-07
1.67316e-07
1.62829e-07
1.6186e-07
1.61652e-07
1.61596e-07
1.61573e-07
1.61477e-07
1.61368e-07
1.60495e-07
1.59822e-07
1.53321e-07
1.50543e-07
1.11631e-07
1.07611e-07
-1.85244e-05
1.8571e-05
4.26498e-06
9.4759e-07
3.06583e-07
1.90001e-07
1.6732e-07
1.6283e-07
1.6186e-07
1.61652e-07
1.61596e-07
1.61573e-07
1.61477e-07
1.61367e-07
1.60494e-07
1.59822e-07
1.53319e-07
1.50541e-07
1.11628e-07
1.07609e-07
-1.85363e-05
1.8548e-05
4.26203e-06
9.47702e-07
3.06734e-07
1.90047e-07
1.67332e-07
1.62833e-07
1.6186e-07
1.61651e-07
1.61595e-07
1.61571e-07
1.61475e-07
1.61366e-07
1.60492e-07
1.59819e-07
1.53312e-07
1.50535e-07
1.11616e-07
1.07603e-07
-1.85368e-05
1.85463e-05
4.26167e-06
9.47666e-07
3.06734e-07
1.90048e-07
1.67333e-07
1.62833e-07
1.6186e-07
1.61651e-07
1.61595e-07
1.61571e-07
1.61475e-07
1.61366e-07
1.60491e-07
1.59818e-07
1.53312e-07
1.50534e-07
1.11616e-07
1.07603e-07
-1.85389e-05
1.85397e-05
4.26021e-06
9.47504e-07
3.06719e-07
1.90048e-07
1.67333e-07
1.62833e-07
1.6186e-07
1.61651e-07
1.61594e-07
1.61571e-07
1.61475e-07
1.61366e-07
1.60491e-07
1.59818e-07
1.53312e-07
1.50534e-07
1.11616e-07
1.07603e-07
-1.8539e-05
1.85392e-05
4.26011e-06
9.47491e-07
3.06718e-07
1.90048e-07
1.67333e-07
1.62833e-07
1.6186e-07
1.61651e-07
1.61594e-07
1.61571e-07
1.61475e-07
1.61366e-07
1.60491e-07
1.59818e-07
1.53312e-07
1.50534e-07
1.11616e-07
1.07603e-07
-1.85397e-05
1.85377e-05
4.25977e-06
9.47452e-07
3.06713e-07
1.90048e-07
1.67333e-07
1.62833e-07
1.6186e-07
1.61651e-07
1.61594e-07
1.61571e-07
1.61475e-07
1.61366e-07
1.60491e-07
1.59818e-07
1.53312e-07
1.50534e-07
1.11616e-07
1.07603e-07
-1.85398e-05
1.85375e-05
4.25976e-06
9.47451e-07
3.06713e-07
1.90048e-07
1.67333e-07
1.62833e-07
1.6186e-07
1.61651e-07
1.61594e-07
1.61571e-07
1.61475e-07
1.61366e-07
1.60491e-07
1.59818e-07
1.53312e-07
1.50534e-07
1.11616e-07
1.07603e-07
-1.85399e-05
1.85373e-05
4.25971e-06
9.47445e-07
3.06712e-07
1.90048e-07
1.67333e-07
1.62833e-07
1.6186e-07
1.61651e-07
1.61594e-07
1.61571e-07
1.61475e-07
1.61366e-07
1.60491e-07
1.59818e-07
1.53312e-07
1.50534e-07
1.11616e-07
1.07603e-07
-1.85399e-05
1.85373e-05
4.25971e-06
9.47445e-07
3.06712e-07
1.90048e-07
1.67333e-07
1.62833e-07
1.6186e-07
1.61651e-07
1.61594e-07
1.61571e-07
1.61475e-07
1.61366e-07
1.60491e-07
1.59818e-07
1.53312e-07
1.50534e-07
1.11616e-07
1.07603e-07
-1.85398e-05
1.85375e-05
4.25976e-06
9.47451e-07
3.06713e-07
1.90048e-07
1.67333e-07
1.62833e-07
1.6186e-07
1.61651e-07
1.61594e-07
1.61571e-07
1.61475e-07
1.61366e-07
1.60491e-07
1.59818e-07
1.53312e-07
1.50534e-07
1.11616e-07
1.07603e-07
-1.85397e-05
1.85377e-05
4.25977e-06
9.47452e-07
3.06713e-07
1.90048e-07
1.67333e-07
1.62833e-07
1.6186e-07
1.61651e-07
1.61594e-07
1.61571e-07
1.61475e-07
1.61366e-07
1.60491e-07
1.59818e-07
1.53312e-07
1.50534e-07
1.11616e-07
1.07603e-07
-1.8539e-05
1.85392e-05
4.26011e-06
9.47491e-07
3.06718e-07
1.90048e-07
1.67333e-07
1.62833e-07
1.6186e-07
1.61651e-07
1.61594e-07
1.61571e-07
1.61475e-07
1.61366e-07
1.60491e-07
1.59818e-07
1.53312e-07
1.50534e-07
1.11616e-07
1.07603e-07
-1.85389e-05
1.85397e-05
4.26021e-06
9.47504e-07
3.06719e-07
1.90048e-07
1.67333e-07
1.62833e-07
1.6186e-07
1.61651e-07
1.61594e-07
1.61571e-07
1.61475e-07
1.61366e-07
1.60491e-07
1.59818e-07
1.53312e-07
1.50534e-07
1.11616e-07
1.07603e-07
-1.85368e-05
1.85463e-05
4.26167e-06
9.47666e-07
3.06734e-07
1.90048e-07
1.67333e-07
1.62833e-07
1.6186e-07
1.61651e-07
1.61595e-07
1.61571e-07
1.61475e-07
1.61366e-07
1.60491e-07
1.59818e-07
1.53312e-07
1.50534e-07
1.11616e-07
1.07603e-07
-1.85363e-05
1.8548e-05
4.26203e-06
9.47702e-07
3.06734e-07
1.90047e-07
1.67332e-07
1.62833e-07
1.6186e-07
1.61651e-07
1.61595e-07
1.61571e-07
1.61475e-07
1.61366e-07
1.60492e-07
1.59819e-07
1.53312e-07
1.50535e-07
1.11616e-07
1.07603e-07
-1.85244e-05
1.8571e-05
4.26498e-06
9.4759e-07
3.06583e-07
1.90001e-07
1.6732e-07
1.6283e-07
1.6186e-07
1.61652e-07
1.61596e-07
1.61573e-07
1.61477e-07
1.61367e-07
1.60494e-07
1.59822e-07
1.53319e-07
1.50541e-07
1.11628e-07
1.07609e-07
-1.85223e-05
1.85742e-05
4.26501e-06
9.47427e-07
3.06523e-07
1.89984e-07
1.67316e-07
1.62829e-07
1.6186e-07
1.61652e-07
1.61596e-07
1.61573e-07
1.61477e-07
1.61368e-07
1.60495e-07
1.59822e-07
1.53321e-07
1.50543e-07
1.11631e-07
1.07611e-07
-1.83269e-05
1.85571e-05
4.20687e-06
9.32408e-07
3.0331e-07
1.89309e-07
1.67187e-07
1.62816e-07
1.61874e-07
1.61672e-07
1.61617e-07
1.61595e-07
1.61501e-07
1.61394e-07
1.60535e-07
1.5987e-07
1.5344e-07
1.50669e-07
1.1193e-07
1.07823e-07
-1.80272e-05
1.87582e-05
4.24583e-06
9.40109e-07
3.04825e-07
1.89608e-07
1.67248e-07
1.62888e-07
1.61966e-07
1.61761e-07
1.61705e-07
1.61683e-07
1.61587e-07
1.61478e-07
1.60582e-07
1.59854e-07
1.53358e-07
1.50562e-07
1.11336e-07
1.07199e-07
-1.8214e-05
1.8776e-05
4.30459e-06
9.55283e-07
3.08076e-07
1.90291e-07
1.6738e-07
1.62899e-07
1.61953e-07
1.61741e-07
1.61684e-07
1.61661e-07
1.61563e-07
1.61452e-07
1.6054e-07
1.59805e-07
1.53239e-07
1.50435e-07
1.11032e-07
1.06983e-07
-1.82159e-05
1.87728e-05
4.30456e-06
9.55447e-07
3.08136e-07
1.90308e-07
1.67384e-07
1.629e-07
1.61953e-07
1.61741e-07
1.61684e-07
1.6166e-07
1.61563e-07
1.61452e-07
1.60539e-07
1.59804e-07
1.53237e-07
1.50433e-07
1.11029e-07
1.06981e-07
-1.82265e-05
1.87495e-05
4.30159e-06
9.55561e-07
3.08288e-07
1.90354e-07
1.67397e-07