/*--------------------------------*- C++ -*----------------------------------*\
  =========                 |
  \\      /  F ield         | OpenFOAM: The Open Source CFD Toolbox
   \\    /   O peration     | Website:  https://openfoam.org
    \\  /    A nd           | Version:  8
     \\/     M anipulation  |
\*---------------------------------------------------------------------------*/
FoamFile
{
    version     2.0;
    format      ascii;
    class       volScalarField;
    location    "3.1";
    object      p;
}
// * * * * * * * * * * * * * * * * * * * * * * * * * * * * * * * * * * * * * //

dimensions      [0 2 -2 0 0 0 0];

internalField   nonuniform List<scalar> 
180000
(
0.000900444
0.000839496
0.000877834
0.000747744
0.000816621
0.000885927
0.000825209
0.000863265
0.000734497
0.00080223
0.000885169
0.000824486
0.000862507
0.000733864
0.000801514
0.000880969
0.000820447
0.00085829
0.000730299
0.000797557
0.000880475
0.000819977
0.000857792
0.000729887
0.000797089
0.000878605
0.00081819
0.000855909
0.000728318
0.000795326
0.00087834
0.000817938
0.000855641
0.000728096
0.000795073
0.000877509
0.000817145
0.000854803
0.000727399
0.000794287
0.000877399
0.00081704
0.000854691
0.000727307
0.000794182
0.000877162
0.000816815
0.000854452
0.000727108
0.000793957
0.000877162
0.000816815
0.000854452
0.000727108
0.000793957
0.000877399
0.00081704
0.000854691
0.000727307
0.000794182
0.000877509
0.000817145
0.000854803
0.000727399
0.000794287
0.00087834
0.000817938
0.000855641
0.000728096
0.000795073
0.000878605
0.00081819
0.000855909
0.000728318
0.000795326
0.000880475
0.000819977
0.000857792
0.000729887
0.000797089
0.000880969
0.000820447
0.00085829
0.000730299
0.000797557
0.000885169
0.000824486
0.000862507
0.000733864
0.000801514
0.000885927
0.000825209
0.000863265
0.000734497
0.00080223
0.000900444
0.000839496
0.000877834
0.000747744
0.000816621
0.000734691
0.000706442
0.000725145
0.000656104
0.000695328
0.000728352
0.00069931
0.000718445
0.000648318
0.000687809
0.000728015
0.000698943
0.000718089
0.000647939
0.000687428
0.0007261
0.000696848
0.000716067
0.000645773
0.000685282
0.000725875
0.000696604
0.000715829
0.000645523
0.000685029
0.000725015
0.000695671
0.000714918
0.000644564
0.000684066
0.000724893
0.00069554
0.000714789
0.000644429
0.000683929
0.000724509
0.000695124
0.000714382
0.000644003
0.000683499
0.000724459
0.00069507
0.000714328
0.000643946
0.000683441
0.000724349
0.000694951
0.000714212
0.000643824
0.000683318
0.000724349
0.000694951
0.000714212
0.000643824
0.000683318
0.000724459
0.00069507
0.000714328
0.000643946
0.000683441
0.000724509
0.000695124
0.000714382
0.000644003
0.000683499
0.000724893
0.00069554
0.000714789
0.000644429
0.000683929
0.000725015
0.000695671
0.000714918
0.000644564
0.000684066
0.000725875
0.000696604
0.000715829
0.000645523
0.000685029
0.0007261
0.000696848
0.000716067
0.000645773
0.000685282
0.000728015
0.000698943
0.000718089
0.000647939
0.000687428
0.000728352
0.00069931
0.000718445
0.000648318
0.000687809
0.000734691
0.000706442
0.000725145
0.000656104
0.000695328
0.00052733
0.000504896
0.000520201
0.000466246
0.000499236
0.000522238
0.000499442
0.000514929
0.000460587
0.000493553
0.000521968
0.000499161
0.000514649
0.00046031
0.000493264
0.000520399
0.000497523
0.000513025
0.000458693
0.000491599
0.000520218
0.000497335
0.000512836
0.000458508
0.000491405
0.000519514
0.000496606
0.000512106
0.000457793
0.000490659
0.000519416
0.000496504
0.000512004
0.000457693
0.000490553
0.000519103
0.00049618
0.000511678
0.000457375
0.00049022
0.000519062
0.000496138
0.000511635
0.000457333
0.000490176
0.000518972
0.000496045
0.000511542
0.000457242
0.00049008
0.000518972
0.000496045
0.000511542
0.000457242
0.00049008
0.000519062
0.000496138
0.000511635
0.000457333
0.000490176
0.000519103
0.00049618
0.000511678
0.000457375
0.00049022
0.000519416
0.000496504
0.000512004
0.000457693
0.000490553
0.000519514
0.000496606
0.000512106
0.000457793
0.000490659
0.000520218
0.000497335
0.000512836
0.000458508
0.000491405
0.000520399
0.000497523
0.000513025
0.000458693
0.000491599
0.000521968
0.000499161
0.000514649
0.00046031
0.000493264
0.000522238
0.000499442
0.000514929
0.000460587
0.000493553
0.00052733
0.000504896
0.000520201
0.000466246
0.000499236
0.000492759
0.000466545
0.00048453
0.000423849
0.000463156
0.00048669
0.000460398
0.000478382
0.000417906
0.000456879
0.000486366
0.00046008
0.000478055
0.000417615
0.000456558
0.000484492
0.000458222
0.000476154
0.000415895
0.000454698
0.000484275
0.00045801
0.000475933
0.000415699
0.000454482
0.000483437
0.000457185
0.000475081
0.00041494
0.00045365
0.000483321
0.00045707
0.000474962
0.000414834
0.000453532
0.000482948
0.000456704
0.000474582
0.000414496
0.000453161
0.000482899
0.000456656
0.000474532
0.000414452
0.000453112
0.000482793
0.000456551
0.000474423
0.000414356
0.000453006
0.000482793
0.000456551
0.000474423
0.000414356
0.000453006
0.000482899
0.000456656
0.000474532
0.000414452
0.000453112
0.000482948
0.000456704
0.000474582
0.000414496
0.000453161
0.000483321
0.00045707
0.000474962
0.000414834
0.000453532
0.000483437
0.000457185
0.000475081
0.00041494
0.00045365
0.000484275
0.00045801
0.000475933
0.000415699
0.000454482
0.000484492
0.000458222
0.000476154
0.000415895
0.000454698
0.000486366
0.00046008
0.000478055
0.000417615
0.000456558
0.00048669
0.000460398
0.000478382
0.000417906
0.000456879
0.000492759
0.000466545
0.00048453
0.000423849
0.000463156
0.000515713
0.000488
0.000507361
0.000442522
0.000487428
0.000509319
0.000481523
0.000500883
0.00043627
0.000480835
0.000508974
0.000481184
0.000500535
0.000435959
0.000480492
0.000506969
0.000479195
0.000498501
0.00043412
0.0004785
0.000506738
0.000478968
0.000498266
0.000433912
0.000478269
0.000505841
0.000478085
0.000497353
0.000433099
0.000477378
0.000505716
0.000477963
0.000497226
0.000432986
0.000477252
0.000505317
0.00047757
0.000496819
0.000432625
0.000476855
0.000505265
0.000477519
0.000496765
0.000432578
0.000476802
0.000505151
0.000477407
0.000496649
0.000432475
0.000476688
0.000505151
0.000477407
0.000496649
0.000432475
0.000476688
0.000505265
0.000477519
0.000496765
0.000432578
0.000476802
0.000505317
0.00047757
0.000496819
0.000432625
0.000476855
0.000505716
0.000477963
0.000497226
0.000432986
0.000477252
0.000505841
0.000478085
0.000497353
0.000433099
0.000477378
0.000506738
0.000478968
0.000498266
0.000433912
0.000478269
0.000506969
0.000479195
0.000498501
0.00043412
0.0004785
0.000508974
0.000481184
0.000500535
0.000435959
0.000480492
0.000509319
0.000481523
0.000500883
0.00043627
0.000480835
0.000515713
0.000488
0.000507361
0.000442522
0.000487428
0.000528488
0.000501349
0.000520797
0.00045603
0.000504556
0.000522277
0.00049501
0.000514489
0.000449852
0.000498106
0.000521938
0.000494675
0.000514145
0.000449541
0.000497766
0.00051995
0.000492689
0.000512124
0.000447687
0.000495768
0.000519722
0.000492464
0.00051189
0.000447477
0.000495537
0.000518831
0.000491581
0.000510982
0.000446657
0.000494642
0.000518708
0.000491459
0.000510855
0.000446543
0.000494516
0.000518311
0.000491066
0.00051045
0.000446178
0.000494117
0.00051826
0.000491015
0.000510397
0.000446131
0.000494064
0.000518146
0.000490903
0.000510281
0.000446027
0.00049395
0.000518146
0.000490903
0.000510281
0.000446027
0.00049395
0.00051826
0.000491015
0.000510397
0.000446131
0.000494064
0.000518311
0.000491066
0.00051045
0.000446178
0.000494117
0.000518708
0.000491459
0.000510855
0.000446543
0.000494516
0.000518831
0.000491581
0.000510982
0.000446657
0.000494642
0.000519722
0.000492464
0.00051189
0.000447477
0.000495537
0.00051995
0.000492689
0.000512124
0.000447687
0.000495768
0.000521938
0.000494675
0.000514145
0.000449541
0.000497766
0.000522277
0.00049501
0.000514489
0.000449852
0.000498106
0.000528488
0.000501349
0.000520797
0.00045603
0.000504556
0.0005284
0.000502011
0.000521412
0.000457521
0.000509333
0.000522403
0.000495879
0.000515318
0.000451524
0.0005031
0.000522072
0.000495551
0.000514983
0.000451219
0.000502766
0.000520113
0.000493591
0.00051299
0.000449381
0.000500786
0.000519889
0.000493369
0.000512761
0.000449174
0.000500558
0.00051901
0.000492496
0.000511864
0.00044836
0.00049967
0.000518889
0.000492376
0.00051174
0.000448247
0.000499545
0.000518497
0.000491988
0.00051134
0.000447885
0.000499149
0.000518447
0.000491938
0.000511288
0.000447838
0.000499096
0.000518335
0.000491827
0.000511173
0.000447735
0.000498983
0.000518335
0.000491827
0.000511173
0.000447735
0.000498983
0.000518447
0.000491938
0.000511288
0.000447838
0.000499096
0.000518497
0.000491988
0.00051134
0.000447885
0.000499149
0.000518889
0.000492376
0.00051174
0.000448247
0.000499545
0.00051901
0.000492496
0.000511864
0.00044836
0.00049967
0.000519889
0.000493369
0.000512761
0.000449174
0.000500558
0.000520113
0.000493591
0.00051299
0.000449381
0.000500786
0.000522072
0.000495551
0.000514983
0.000451219
0.000502766
0.000522403
0.000495879
0.000515318
0.000451524
0.0005031
0.0005284
0.000502011
0.000521412
0.000457521
0.000509333
0.000525751
0.00049978
0.000519324
0.000455855
0.000511002
0.000519881
0.000493787
0.000513366
0.000450001
0.000504921
0.000519555
0.000493464
0.000513035
0.000449701
0.00050459
0.000517602
0.000491512
0.00051105
0.000447871
0.000502613
0.000517379
0.000491292
0.000510822
0.000447666
0.000502386
0.000516503
0.000490422
0.000509928
0.000446853
0.000501498
0.000516382
0.000490303
0.000509805
0.000446742
0.000501374
0.000515991
0.000489916
0.000509405
0.00044638
0.000500977
0.000515941
0.000489866
0.000509354
0.000446334
0.000500925
0.000515829
0.000489756
0.00050924
0.000446231
0.000500812
0.000515829
0.000489756
0.00050924
0.000446231
0.000500812
0.000515941
0.000489866
0.000509354
0.000446334
0.000500925
0.000515991
0.000489916
0.000509405
0.00044638
0.000500977
0.000516382
0.000490303
0.000509805
0.000446742
0.000501374
0.000516503
0.000490422
0.000509928
0.000446853
0.000501498
0.000517379
0.000491292
0.000510822
0.000447666
0.000502386
0.000517602
0.000491512
0.00051105
0.000447871
0.000502613
0.000519555
0.000493464
0.000513035
0.000449701
0.00050459
0.000519881
0.000493787
0.000513366
0.000450001
0.000504921
0.000525751
0.00049978
0.000519324
0.000455855
0.000511002
0.000524487
0.000498787
0.000518556
0.00045528
0.000513407
0.00051871
0.000492898
0.000512697
0.000449535
0.000507435
0.000518386
0.000492577
0.000512369
0.000449237
0.000507106
0.000516431
0.000490626
0.000510383
0.000447407
0.000505123
0.000516208
0.000490406
0.000510156
0.000447202
0.000504896
0.000515329
0.000489535
0.00050926
0.000446389
0.000504004
0.000515209
0.000489416
0.000509137
0.000446278
0.00050388
0.000514817
0.000489028
0.000508737
0.000445915
0.000503482
0.000514767
0.000488979
0.000508685
0.000445869
0.00050343
0.000514655
0.000488868
0.000508571
0.000445766
0.000503316
0.000514655
0.000488868
0.000508571
0.000445766
0.000503316
0.000514767
0.000488979
0.000508685
0.000445869
0.00050343
0.000514817
0.000489028
0.000508737
0.000445915
0.000503482
0.000515209
0.000489416
0.000509137
0.000446278
0.00050388
0.000515329
0.000489535
0.00050926
0.000446389
0.000504004
0.000516208
0.000490406
0.000510156
0.000447202
0.000504896
0.000516431
0.000490626
0.000510383
0.000447407
0.000505123
0.000518386
0.000492577
0.000512369
0.000449237
0.000507106
0.00051871
0.000492898
0.000512697
0.000449535
0.000507435
0.000524487
0.000498787
0.000518556
0.00045528
0.000513407
0.00052416
0.000498735
0.000518717
0.000455699
0.000516101
0.000518479
0.000492949
0.000512959
0.000450055
0.000510225
0.000518157
0.000492631
0.000512633
0.00044976
0.000509898
0.000516202
0.00049068
0.000510647
0.000447928
0.000507909
0.00051598
0.000490461
0.000510421
0.000447724
0.000507683
0.000515099
0.000489589
0.000509524
0.000446909
0.000506787
0.000514979
0.00048947
0.0005094
0.000446798
0.000506663
0.000514586
0.000489082
0.000508999
0.000446435
0.000506263
0.000514536
0.000489032
0.000508948
0.000446389
0.000506211
0.000514424
0.000488921
0.000508833
0.000446285
0.000506097
0.000514424
0.000488921
0.000508833
0.000446285
0.000506097
0.000514536
0.000489032
0.000508948
0.000446389
0.000506211
0.000514586
0.000489082
0.000508999
0.000446435
0.000506263
0.000514979
0.00048947
0.0005094
0.000446798
0.000506663
0.000515099
0.000489589
0.000509524
0.000446909
0.000506787
0.00051598
0.000490461
0.000510421
0.000447724
0.000507683
0.000516202
0.00049068
0.000510647
0.000447928
0.000507909
0.000518157
0.000492631
0.000512633
0.00044976
0.000509898
0.000518479
0.000492949
0.000512959
0.000450055
0.000510225
0.00052416
0.000498735
0.000518717
0.000455699
0.000516101
0.00052393
0.000498798
0.000518966
0.00045632
0.00051794
0.00051835
0.000493118
0.000513314
0.000450778
0.000512149
0.000518031
0.000492803
0.000512992
0.000450485
0.000511823
0.000516076
0.000490854
0.000511007
0.000448653
0.00050983
0.000515856
0.000490637
0.000510782
0.00044845
0.000509603
0.000514974
0.000489764
0.000509885
0.000447633
0.000508704
0.000514854
0.000489645
0.000509762
0.000447523
0.00050858
0.000514461
0.000489257
0.000509361
0.000447159
0.000508178
0.000514411
0.000489207
0.000509309
0.000447112
0.000508126
0.000514299
0.000489096
0.000509194
0.000447009
0.000508011
0.000514299
0.000489096
0.000509194
0.000447009
0.000508011
0.000514411
0.000489207
0.000509309
0.000447112
0.000508126
0.000514461
0.000489257
0.000509361
0.000447159
0.000508178
0.000514854
0.000489645
0.000509762
0.000447523
0.00050858
0.000514974
0.000489764
0.000509885
0.000447633
0.000508704
0.000515856
0.000490637
0.000510782
0.00044845
0.000509603
0.000516076
0.000490854
0.000511007
0.000448653
0.00050983
0.000518031
0.000492803
0.000512992
0.000450485
0.000511823
0.00051835
0.000493118
0.000513314
0.000450778
0.000512149
0.00052393
0.000498798
0.000518966
0.00045632
0.00051794
0.000523586
0.000498743
0.000519086
0.000456837
0.000516717
0.000518105
0.000493169
0.000513539
0.000451397
0.000511025
0.000517789
0.000492857
0.000513219
0.000451107
0.000510702
0.000515837
0.000490911
0.000511238
0.000449276
0.000508712
0.000515618
0.000490694
0.000511014
0.000449074
0.000508487
0.000514736
0.000489821
0.000510116
0.000448256
0.000507587
0.000514616
0.000489704
0.000509993
0.000448145
0.000507464
0.000514223
0.000489315
0.000509592
0.000447781
0.000507062
0.000514173
0.000489265
0.000509541
0.000447734
0.00050701
0.00051406
0.000489155
0.000509426
0.00044763
0.000506895
0.00051406
0.000489155
0.000509426
0.00044763
0.000506895
0.000514173
0.000489265
0.000509541
0.000447734
0.00050701
0.000514223
0.000489315
0.000509592
0.000447781
0.000507062
0.000514616
0.000489704
0.000509993
0.000448145
0.000507464
0.000514736
0.000489821
0.000510116
0.000448256
0.000507587
0.000515618
0.000490694
0.000511014
0.000449074
0.000508487
0.000515837
0.000490911
0.000511238
0.000449276
0.000508712
0.000517789
0.000492857
0.000513219
0.000451107
0.000510702
0.000518105
0.000493169
0.000513539
0.000451397
0.000511025
0.000523586
0.000498743
0.000519086
0.000456837
0.000516717
0.000523203
0.000498636
0.000519147
0.000457225
0.000514622
0.000517819
0.000493165
0.000513702
0.000451885
0.000509033
0.000517506
0.000492856
0.000513385
0.000451597
0.000508714
0.000515557
0.000490913
0.000511407
0.000449768
0.00050673
0.000515338
0.000490698
0.000511184
0.000449566
0.000506506
0.000514456
0.000489824
0.000510286
0.000448747
0.000505608
0.000514336
0.000489707
0.000510164
0.000448637
0.000505485
0.000513943
0.000489318
0.000509762
0.000448272
0.000505083
0.000513893
0.000489269
0.000509711
0.000448226
0.000505031
0.00051378
0.000489158
0.000509596
0.000448122
0.000504916
0.00051378
0.000489158
0.000509596
0.000448122
0.000504916
0.000513893
0.000489269
0.000509711
0.000448226
0.000505031
0.000513943
0.000489318
0.000509762
0.000448272
0.000505083
0.000514336
0.000489707
0.000510164
0.000448637
0.000505485
0.000514456
0.000489824
0.000510286
0.000448747
0.000505608
0.000515338
0.000490698
0.000511184
0.000449566
0.000506506
0.000515557
0.000490913
0.000511407
0.000449768
0.00050673
0.000517506
0.000492856
0.000513385
0.000451597
0.000508714
0.000517819
0.000493165
0.000513702
0.000451885
0.000509033
0.000523203
0.000498636
0.000519147
0.000457225
0.000514622
0.000522843
0.00049854
0.000519213
0.00045753
0.000512787
0.000517554
0.000493169
0.000513868
0.000452289
0.000507298
0.000517243
0.000492863
0.000513554
0.000452003
0.000506982
0.000515297
0.000490924
0.000511579
0.000450176
0.000505005
0.000515079
0.000490709
0.000511357
0.000449975
0.000504782
0.000514196
0.000489836
0.000510459
0.000449156
0.000503884
0.000514077
0.000489719
0.000510337
0.000449046
0.000503762
0.000513683
0.00048933
0.000509935
0.00044868
0.00050336
0.000513634
0.000489281
0.000509884
0.000448634
0.000503309
0.000513521
0.00048917
0.000509769
0.00044853
0.000503194
0.000513521
0.00048917
0.000509769
0.00044853
0.000503194
0.000513634
0.000489281
0.000509884
0.000448634
0.000503309
0.000513683
0.00048933
0.000509935
0.00044868
0.00050336
0.000514077
0.000489719
0.000510337
0.000449046
0.000503762
0.000514196
0.000489836
0.000510459
0.000449156
0.000503884
0.000515079
0.000490709
0.000511357
0.000449975
0.000504782
0.000515297
0.000490924
0.000511579
0.000450176
0.000505005
0.000517243
0.000492863
0.000513554
0.000452003
0.000506982
0.000517554
0.000493169
0.000513868
0.000452289
0.000507298
0.000522843
0.00049854
0.000519213
0.00045753
0.000512787
0.000522514
0.000498466
0.000519297
0.000457775
0.000511215
0.000517317
0.000493193
0.000514048
0.00045263
0.000505822
0.000517009
0.000492889
0.000513737
0.000452347
0.00050551
0.000515066
0.000490954
0.000511766
0.000450523
0.000503538
0.000514849
0.00049074
0.000511545
0.000450323
0.000503316
0.000513966
0.000489867
0.000510646
0.000449503
0.00050242
0.000513848
0.000489751
0.000510525
0.000449393
0.000502298
0.000513453
0.000489361
0.000510123
0.000449027
0.000501896
0.000513404
0.000489312
0.000510072
0.000448981
0.000501845
0.000513291
0.000489201
0.000509957
0.000448877
0.00050173
0.000513291
0.000489201
0.000509957
0.000448877
0.00050173
0.000513404
0.000489312
0.000510072
0.000448981
0.000501845
0.000513453
0.000489361
0.000510123
0.000449027
0.000501896
0.000513848
0.000489751
0.000510525
0.000449393
0.000502298
0.000513966
0.000489867
0.000510646
0.000449503
0.00050242
0.000514849
0.00049074
0.000511545
0.000450323
0.000503316
0.000515066
0.000490954
0.000511766
0.000450523
0.000503538
0.000517009
0.000492889
0.000513737
0.000452347
0.00050551
0.000517317
0.000493193
0.000514048
0.00045263
0.000505822
0.000522514
0.000498466
0.000519297
0.000457775
0.000511215
0.000522207
0.000498406
0.000519389
0.000457961
0.000509706
0.000517101
0.000493228
0.000514235
0.000452911
0.000504407
0.000516796
0.000492927
0.000513927
0.00045263
0.000504098
0.000514856
0.000490996
0.00051196
0.000450809
0.000502133
0.00051464
0.000490783
0.00051174
0.000450609
0.000501912
0.000513757
0.00048991
0.000510842
0.000449789
0.000501016
0.000513639
0.000489794
0.000510721
0.00044968
0.000500895
0.000513244
0.000489405
0.000510319
0.000449314
0.000500493
0.000513195
0.000489356
0.000510268
0.000449268
0.000500442
0.000513082
0.000489245
0.000510153
0.000449163
0.000500328
0.000513082
0.000489245
0.000510153
0.000449163
0.000500328
0.000513195
0.000489356
0.000510268
0.000449268
0.000500442
0.000513244
0.000489405
0.000510319
0.000449314
0.000500493
0.000513639
0.000489794
0.000510721
0.00044968
0.000500895
0.000513757
0.00048991
0.000510842
0.000449789
0.000501016
0.00051464
0.000490783
0.00051174
0.000450609
0.000501912
0.000514856
0.000490996
0.00051196
0.000450809
0.000502133
0.000516796
0.000492927
0.000513927
0.00045263
0.000504098
0.000517101
0.000493228
0.000514235
0.000452911
0.000504407
0.000522207
0.000498406
0.000519389
0.000457961
0.000509706
0.000521918
0.000498355
0.000519489
0.000458083
0.000508191
0.000516901
0.000493271
0.000514428
0.000453127
0.000502984
0.000516598
0.000492972
0.000514122
0.000452849
0.000502677
0.000514662
0.000491045
0.000512159
0.000451031
0.000500719
0.000514447
0.000490834
0.000511941
0.000450833
0.0005005
0.000513563
0.000489961
0.000511042
0.000450012
0.000499604
0.000513446
0.000489845
0.000510922
0.000449904
0.000499484
0.000513051
0.000489455
0.000510519
0.000449537
0.000499082
0.000513002
0.000489407
0.000510469
0.000449492
0.000499032
0.000512889
0.000489296
0.000510354
0.000449387
0.000498917
0.000512889
0.000489296
0.000510354
0.000449387
0.000498917
0.000513002
0.000489407
0.000510469
0.000449492
0.000499032
0.000513051
0.000489455
0.000510519
0.000449537
0.000499082
0.000513446
0.000489845
0.000510922
0.000449904
0.000499484
0.000513563
0.000489961
0.000511042
0.000450012
0.000499604
0.000514447
0.000490834
0.000511941
0.000450833
0.0005005
0.000514662
0.000491045
0.000512159
0.000451031
0.000500719
0.000516598
0.000492972
0.000514122
0.000452849
0.000502677
0.000516901
0.000493271
0.000514428
0.000453127
0.000502984
0.000521918
0.000498355
0.000519489
0.000458083
0.000508191
0.000521646
0.000498314
0.000519596
0.000458143
0.000506681
0.000516716
0.00049332
0.000514625
0.000453279
0.000501563
0.000516415
0.000493024
0.000514322
0.000453003
0.00050126
0.000514483
0.000491102
0.000512364
0.00045119
0.000499308
0.000514269
0.000490892
0.000512147
0.000450993
0.00049909
0.000513386
0.000490019
0.000511248
0.000450173
0.000498196
0.000513269
0.000489903
0.000511128
0.000450064
0.000498076
0.000512873
0.000489514
0.000510726
0.000449698
0.000497675
0.000512824
0.000489465
0.000510675
0.000449652
0.000497624
0.000512711
0.000489354
0.00051056
0.000449548
0.000497509
0.000512711
0.000489354
0.00051056
0.000449548
0.000497509
0.000512824
0.000489465
0.000510675
0.000449652
0.000497624
0.000512873
0.000489514
0.000510726
0.000449698
0.000497675
0.000513269
0.000489903
0.000511128
0.000450064
0.000498076
0.000513386
0.000490019
0.000511248
0.000450173
0.000498196
0.000514269
0.000490892
0.000512147
0.000450993
0.00049909
0.000514483
0.000491102
0.000512364
0.00045119
0.000499308
0.000516415
0.000493024
0.000514322
0.000453003
0.00050126
0.000516716
0.00049332
0.000514625
0.000453279
0.000501563
0.000521646
0.000498314
0.000519596
0.000458143
0.000506681
0.000521392
0.000498282
0.000519712
0.000458142
0.00050519
0.000516546
0.000493377
0.000514831
0.000453368
0.000500159
0.000516248
0.000493084
0.00051453
0.000453095
0.000499858
0.00051432
0.000491167
0.000512577
0.000451287
0.000497914
0.000514107
0.000490957
0.00051236
0.000451091
0.000497697
0.000513224
0.000490085
0.000511462
0.000450271
0.000496804
0.000513107
0.00048997
0.000511343
0.000450163
0.000496684
0.000512712
0.00048958
0.00051094
0.000449796
0.000496284
0.000512663
0.000489532
0.00051089
0.000449751
0.000496233
0.00051255
0.000489421
0.000510775
0.000449646
0.000496118
0.00051255
0.000489421
0.000510775
0.000449646
0.000496118
0.000512663
0.000489532
0.00051089
0.000449751
0.000496233
0.000512712
0.00048958
0.00051094
0.000449796
0.000496284
0.000513107
0.00048997
0.000511343
0.000450163
0.000496684
0.000513224
0.000490085
0.000511462
0.000450271
0.000496804
0.000514107
0.000490957
0.00051236
0.000451091
0.000497697
0.00051432
0.000491167
0.000512577
0.000451287
0.000497914
0.000516248
0.000493084
0.00051453
0.000453095
0.000499858
0.000516546
0.000493377
0.000514831
0.000453368
0.000500159
0.000521392
0.000498282
0.000519712
0.000458142
0.00050519
0.000521155
0.000498261
0.000519839
0.00045808
0.000503652
0.000516392
0.000493443
0.000515045
0.000453396
0.000498706
0.000516096
0.000493152
0.000514747
0.000453125
0.000498409
0.000514173
0.00049124
0.000512799
0.000451322
0.000496472
0.000513962
0.000491031
0.000512583
0.000451127
0.000496257
0.000513078
0.000490159
0.000511685
0.000450307
0.000495365
0.000512962
0.000490045
0.000511566
0.0004502
0.000495246
0.000512566
0.000489655
0.000511163
0.000449833
0.000494845
0.000512518
0.000489607
0.000511113
0.000449788
0.000494795
0.000512405
0.000489496
0.000510998
0.000449684
0.00049468
0.000512405
0.000489496
0.000510998
0.000449684
0.00049468
0.000512518
0.000489607
0.000511113
0.000449788
0.000494795
0.000512566
0.000489655
0.000511163
0.000449833
0.000494845
0.000512962
0.000490045
0.000511566
0.0004502
0.000495246
0.000513078
0.000490159
0.000511685
0.000450307
0.000495365
0.000513962
0.000491031
0.000512583
0.000451127
0.000496257
0.000514173
0.00049124
0.000512799
0.000451322
0.000496472
0.000516096
0.000493152
0.000514747
0.000453125
0.000498409
0.000516392
0.000493443
0.000515045
0.000453396
0.000498706
0.000521155
0.000498261
0.000519839
0.00045808
0.000503652
-1.62974e-05
1.57917e-05
2.84634e-06
7.0392e-07
2.53246e-07
1.81224e-07
1.65456e-07
1.62535e-07
1.61819e-07
1.61666e-07
1.61616e-07
1.61593e-07
1.61496e-07
1.61386e-07
1.60519e-07
1.59851e-07
1.53415e-07
1.50644e-07
1.11916e-07
1.07812e-07
-1.63677e-05
1.57529e-05
2.86194e-06
7.0924e-07
2.54568e-07
1.81549e-07
1.65516e-07
1.62536e-07
1.61803e-07
1.61646e-07
1.61595e-07
1.61571e-07
1.61471e-07
1.61359e-07
1.60478e-07
1.59803e-07
1.53295e-07
1.50518e-07
1.11616e-07
1.076e-07
-1.6362e-05
1.57435e-05
2.85909e-06
7.08861e-07
2.54496e-07
1.81541e-07
1.65514e-07
1.62536e-07
1.61803e-07
1.61645e-07
1.61594e-07
1.61571e-07
1.61471e-07
1.61359e-07
1.60477e-07
1.59802e-07
1.53293e-07
1.50516e-07
1.11613e-07
1.07598e-07
-1.63337e-05
1.56925e-05
2.84351e-06
7.06796e-07
2.54108e-07
1.81492e-07
1.65504e-07
1.62534e-07
1.61802e-07
1.61644e-07
1.61593e-07
1.6157e-07
1.61469e-07
1.61357e-07
1.60475e-07
1.59799e-07
1.53286e-07
1.50509e-07
1.11601e-07
1.07592e-07
-1.63292e-05
1.56855e-05
2.8411e-06
7.06418e-07
2.54025e-07
1.81479e-07
1.65501e-07
1.62533e-07
1.61802e-07
1.61644e-07
1.61593e-07
1.6157e-07
1.61469e-07
1.61357e-07
1.60475e-07
1.59799e-07
1.53286e-07
1.50509e-07
1.11601e-07
1.07591e-07
-1.63137e-05
1.56616e-05
2.83299e-06
7.05205e-07
2.53763e-07
1.81437e-07
1.65491e-07
1.62531e-07
1.61801e-07
1.61644e-07
1.61593e-07
1.6157e-07
1.61469e-07
1.61357e-07
1.60474e-07
1.59798e-07
1.53286e-07
1.50509e-07
1.11601e-07
1.07591e-07
-1.63112e-05
1.56579e-05
2.8317e-06
7.04999e-07
2.53716e-07
1.81429e-07
1.65489e-07
1.62531e-07
1.61801e-07
1.61644e-07
1.61593e-07
1.6157e-07
1.61469e-07
1.61357e-07
1.60474e-07
1.59798e-07
1.53286e-07
1.50509e-07
1.11601e-07
1.07591e-07
-1.63043e-05
1.56473e-05
2.82812e-06
7.0446e-07
2.53598e-07
1.81409e-07
1.65485e-07
1.6253e-07
1.61801e-07
1.61644e-07
1.61593e-07
1.6157e-07
1.61469e-07
1.61357e-07
1.60474e-07
1.59798e-07
1.53286e-07
1.50509e-07
1.11601e-07
1.07591e-07
-1.63033e-05
1.56457e-05
2.82759e-06
7.04375e-07
2.53579e-07
1.81406e-07
1.65484e-07
1.6253e-07
1.61801e-07
1.61644e-07
1.61593e-07
1.6157e-07
1.61469e-07
1.61357e-07
1.60474e-07
1.59798e-07
1.53286e-07
1.50509e-07
1.11601e-07
1.07591e-07
-1.63013e-05
1.56427e-05
2.82658e-06
7.04224e-07
2.53546e-07
1.814e-07
1.65483e-07
1.6253e-07
1.61801e-07
1.61644e-07
1.61593e-07
1.6157e-07
1.61469e-07
1.61357e-07
1.60474e-07
1.59798e-07
1.53286e-07
1.50509e-07
1.11601e-07
1.07591e-07
-1.63013e-05
1.56427e-05
2.82658e-06
7.04224e-07
2.53546e-07
1.814e-07
1.65483e-07
1.6253e-07
1.61801e-07
1.61644e-07
1.61593e-07
1.6157e-07
1.61469e-07
1.61357e-07
1.60474e-07
1.59798e-07
1.53286e-07
1.50509e-07
1.11601e-07
1.07591e-07
-1.63033e-05
1.56457e-05
2.82759e-06
7.04375e-07
2.53579e-07
1.81406e-07
1.65484e-07
1.6253e-07
1.61801e-07
1.61644e-07
1.61593e-07
1.6157e-07
1.61469e-07
1.61357e-07
1.60474e-07
1.59798e-07
1.53286e-07
1.50509e-07
1.11601e-07
1.07591e-07
-1.63043e-05
1.56473e-05
2.82812e-06
7.0446e-07
2.53598e-07
1.81409e-07
1.65485e-07
1.6253e-07
1.61801e-07
1.61644e-07
1.61593e-07
1.6157e-07
1.61469e-07
1.61357e-07
1.60474e-07
1.59798e-07
1.53286e-07
1.50509e-07
1.11601e-07
1.07591e-07
-1.63112e-05
1.56579e-05
2.8317e-06
7.04999e-07
2.53716e-07
1.81429e-07
1.65489e-07
1.62531e-07
1.61801e-07
1.61644e-07
1.61593e-07
1.6157e-07
1.61469e-07
1.61357e-07
1.60474e-07
1.59798e-07
1.53286e-07
1.50509e-07
1.11601e-07
1.07591e-07
-1.63137e-05
1.56616e-05
2.83299e-06
7.05205e-07
2.53763e-07
1.81437e-07
1.65491e-07
1.62531e-07
1.61801e-07
1.61644e-07
1.61593e-07
1.6157e-07
1.61469e-07
1.61357e-07
1.60474e-07
1.59798e-07
1.53286e-07
1.50509e-07
1.11601e-07
1.07591e-07
-1.63292e-05
1.56855e-05
2.8411e-06
7.06418e-07
2.54025e-07
1.81479e-07
1.65501e-07
1.62533e-07
1.61802e-07
1.61644e-07
1.61593e-07
1.6157e-07
1.61469e-07
1.61357e-07
1.60475e-07
1.59799e-07
1.53286e-07
1.50509e-07
1.11601e-07
1.07591e-07
-1.63337e-05
1.56925e-05
2.84351e-06
7.06796e-07
2.54108e-07
1.81492e-07
1.65504e-07
1.62534e-07
1.61802e-07
1.61644e-07
1.61593e-07
1.6157e-07
1.61469e-07
1.61357e-07
1.60475e-07
1.59799e-07
1.53286e-07
1.50509e-07
1.11601e-07
1.07592e-07
-1.6362e-05
1.57435e-05
2.85909e-06
7.08861e-07
2.54496e-07
1.81541e-07
1.65514e-07
1.62536e-07
1.61803e-07
1.61645e-07
1.61594e-07
1.61571e-07
1.61471e-07
1.61359e-07
1.60477e-07
1.59802e-07
1.53293e-07
1.50516e-07
1.11613e-07
1.07598e-07
-1.63677e-05
1.57529e-05
2.86194e-06
7.0924e-07
2.54568e-07
1.81549e-07
1.65516e-07
1.62536e-07
1.61803e-07
1.61646e-07
1.61595e-07
1.61571e-07
1.61471e-07
1.61359e-07
1.60478e-07
1.59803e-07
1.53295e-07
1.50518e-07
1.11616e-07
1.076e-07
-1.62974e-05
1.57917e-05
2.84634e-06
7.0392e-07
2.53246e-07
1.81224e-07
1.65456e-07
1.62535e-07
1.61819e-07
1.61666e-07
1.61616e-07
1.61593e-07
1.61496e-07
1.61386e-07
1.60519e-07
1.59851e-07
1.53415e-07
1.50644e-07
1.11916e-07
1.07812e-07
-1.59126e-05
1.59622e-05
2.87204e-06
7.09412e-07
2.54219e-07
1.81448e-07
1.65484e-07
1.62628e-07
1.6191e-07
1.61754e-07
1.61704e-07
1.61681e-07
1.61582e-07
1.6147e-07
1.60564e-07
1.59833e-07
1.53333e-07
1.50537e-07
1.11321e-07
1.07188e-07
-1.5978e-05
1.59234e-05
2.88782e-06
7.14791e-07
2.55557e-07
1.81777e-07
1.65545e-07
1.62628e-07
1.61895e-07
1.61735e-07
1.61683e-07
1.61659e-07
1.61558e-07
1.61444e-07
1.60522e-07
1.59784e-07
1.53212e-07
1.50409e-07
1.11017e-07
1.06972e-07
-1.5972e-05
1.59139e-05
2.88494e-06
7.14409e-07
2.55484e-07
1.81768e-07
1.65544e-07
1.62627e-07
1.61895e-07
1.61734e-07
1.61682e-07
1.61659e-07
1.61557e-07
1.61444e-07
1.60521e-07
1.59783e-07
1.5321e-07
1.50407e-07
1.11014e-07
1.0697e-07
-1.59429e-05
1.58623e-05
2.86922e-06