/*--------------------------------*- C++ -*----------------------------------*\
  =========                 |
  \\      /  F ield         | OpenFOAM: The Open Source CFD Toolbox
   \\    /   O peration     | Website:  https://openfoam.org
    \\  /    A nd           | Version:  8
     \\/     M anipulation  |
\*---------------------------------------------------------------------------*/
FoamFile
{
    version     2.0;
    format      ascii;
    class       volScalarField;
    location    "3.1";
    object      S1;
}
// * * * * * * * * * * * * * * * * * * * * * * * * * * * * * * * * * * * * * //

dimensions      [0 1 -1 0 0 0 0];

internalField   nonuniform List<scalar> 
180000
(
-8.58984e-27
-1.36411e-22
-6.89789e-19
4.9885e-14
2.3012e-09
-8.54533e-27
-1.24816e-22
-1.52823e-19
6.67461e-14
2.71013e-09
-8.55402e-27
-1.24816e-22
-1.47773e-19
6.69382e-14
2.7146e-09
-8.58307e-27
-1.24854e-22
-1.32637e-19
6.75316e-14
2.72845e-09
-8.58685e-27
-1.24956e-22
-1.35478e-19
6.74509e-14
2.72623e-09
-8.59816e-27
-1.25276e-22
-1.44634e-19
6.71919e-14
2.71927e-09
-8.59975e-27
-1.25328e-22
-1.46277e-19
6.71432e-14
2.71795e-09
-8.60379e-27
-1.2546e-22
-1.50405e-19
6.70218e-14
2.71467e-09
-8.60436e-27
-1.25479e-22
-1.51027e-19
6.70032e-14
2.71417e-09
-8.60535e-27
-1.25512e-22
-1.52091e-19
6.69715e-14
2.7133e-09
-8.60535e-27
-1.25512e-22
-1.5209e-19
6.69715e-14
2.7133e-09
-8.60436e-27
-1.25479e-22
-1.51027e-19
6.70032e-14
2.71417e-09
-8.60379e-27
-1.2546e-22
-1.50405e-19
6.70218e-14
2.71467e-09
-8.59975e-27
-1.25328e-22
-1.46277e-19
6.71432e-14
2.71795e-09
-8.59816e-27
-1.25276e-22
-1.44634e-19
6.71919e-14
2.71927e-09
-8.58685e-27
-1.24956e-22
-1.35478e-19
6.74509e-14
2.72623e-09
-8.58307e-27
-1.24854e-22
-1.32637e-19
6.75316e-14
2.72845e-09
-8.55402e-27
-1.24816e-22
-1.47772e-19
6.69382e-14
2.7146e-09
-8.54533e-27
-1.24816e-22
-1.52823e-19
6.67461e-14
2.71013e-09
-8.58984e-27
-1.36411e-22
-6.89789e-19
4.9885e-14
2.3012e-09
-8.58982e-27
-1.36408e-22
-6.89475e-19
5.03919e-14
3.18802e-09
-8.54533e-27
-1.24815e-22
-1.52536e-19
6.7288e-14
3.66715e-09
-8.55401e-27
-1.24814e-22
-1.47485e-19
6.748e-14
3.67167e-09
-8.58306e-27
-1.24852e-22
-1.32353e-19
6.80717e-14
3.68463e-09
-8.58684e-27
-1.24954e-22
-1.35194e-19
6.79903e-14
3.68151e-09
-8.59816e-27
-1.25274e-22
-1.44351e-19
6.77292e-14
3.6715e-09
-8.59975e-27
-1.25326e-22
-1.45995e-19
6.76801e-14
3.66967e-09
-8.60379e-27
-1.25458e-22
-1.50123e-19
6.75576e-14
3.665e-09
-8.60435e-27
-1.25477e-22
-1.50745e-19
6.75389e-14
3.6643e-09
-8.60535e-27
-1.25511e-22
-1.51809e-19
6.75069e-14
3.66305e-09
-8.60535e-27
-1.25511e-22
-1.51808e-19
6.75069e-14
3.66305e-09
-8.60435e-27
-1.25477e-22
-1.50745e-19
6.75389e-14
3.6643e-09
-8.60379e-27
-1.25458e-22
-1.50123e-19
6.75576e-14
3.665e-09
-8.59975e-27
-1.25326e-22
-1.45995e-19
6.76801e-14
3.66967e-09
-8.59816e-27
-1.25274e-22
-1.44351e-19
6.77292e-14
3.6715e-09
-8.58684e-27
-1.24954e-22
-1.35194e-19
6.79903e-14
3.68151e-09
-8.58306e-27
-1.24852e-22
-1.32353e-19
6.80717e-14
3.68463e-09
-8.55401e-27
-1.24814e-22
-1.47485e-19
6.748e-14
3.67167e-09
-8.54533e-27
-1.24815e-22
-1.52536e-19
6.72881e-14
3.66715e-09
-8.58982e-27
-1.36408e-22
-6.89475e-19
5.03919e-14
3.18802e-09
-8.5898e-27
-1.364e-22
-6.86209e-19
5.50315e-14
1.03672e-08
-8.54532e-27
-1.24807e-22
-1.49208e-19
7.21584e-14
1.12462e-08
-8.554e-27
-1.24806e-22
-1.44158e-19
7.23484e-14
1.12501e-08
-8.58305e-27
-1.24845e-22
-1.29047e-19
7.2925e-14
1.12555e-08
-8.58683e-27
-1.24947e-22
-1.31893e-19
7.28388e-14
1.12468e-08
-8.59815e-27
-1.25267e-22
-1.41064e-19
7.25607e-14
1.12179e-08
-8.59974e-27
-1.25319e-22
-1.4271e-19
7.2509e-14
1.12129e-08
-8.60378e-27
-1.2545e-22
-1.46845e-19
7.23788e-14
1.11995e-08
-8.60434e-27
-1.2547e-22
-1.47468e-19
7.2359e-14
1.11975e-08
-8.60534e-27
-1.25503e-22
-1.48534e-19
7.23249e-14
1.11939e-08
-8.60534e-27
-1.25503e-22
-1.48533e-19
7.23249e-14
1.11939e-08
-8.60434e-27
-1.2547e-22
-1.47468e-19
7.2359e-14
1.11975e-08
-8.60378e-27
-1.2545e-22
-1.46845e-19
7.23788e-14
1.11995e-08
-8.59974e-27
-1.25319e-22
-1.4271e-19
7.2509e-14
1.12129e-08
-8.59815e-27
-1.25267e-22
-1.41064e-19
7.25607e-14
1.12179e-08
-8.58683e-27
-1.24947e-22
-1.31893e-19
7.28388e-14
1.12468e-08
-8.58305e-27
-1.24845e-22
-1.29047e-19
7.2925e-14
1.12555e-08
-8.554e-27
-1.24806e-22
-1.44157e-19
7.23484e-14
1.12501e-08
-8.54532e-27
-1.24807e-22
-1.49208e-19
7.21584e-14
1.12462e-08
-8.5898e-27
-1.364e-22
-6.86209e-19
5.50315e-14
1.03672e-08
-8.58976e-27
-1.36377e-22
-6.70684e-19
7.4554e-14
3.61895e-08
-8.54529e-27
-1.24785e-22
-1.33354e-19
9.23423e-14
3.80257e-08
-8.55397e-27
-1.24784e-22
-1.28315e-19
9.25228e-14
3.80262e-08
-8.58303e-27
-1.24822e-22
-1.13298e-19
9.30396e-14
3.80091e-08
-8.5868e-27
-1.24924e-22
-1.16162e-19
9.29367e-14
3.79858e-08
-8.59812e-27
-1.25244e-22
-1.254e-19
9.25997e-14
3.79079e-08
-8.59971e-27
-1.25296e-22
-1.27056e-19
9.25386e-14
3.78947e-08
-8.60375e-27
-1.25428e-22
-1.31221e-19
9.23816e-14
3.78585e-08
-8.60432e-27
-1.25447e-22
-1.31847e-19
9.2358e-14
3.78533e-08
-8.60531e-27
-1.25481e-22
-1.32922e-19
9.23163e-14
3.78432e-08
-8.60531e-27
-1.25481e-22
-1.32921e-19
9.23163e-14
3.78432e-08
-8.60432e-27
-1.25447e-22
-1.31847e-19
9.2358e-14
3.78533e-08
-8.60375e-27
-1.25428e-22
-1.31221e-19
9.23816e-14
3.78585e-08
-8.59971e-27
-1.25296e-22
-1.27056e-19
9.25386e-14
3.78947e-08
-8.59812e-27
-1.25244e-22
-1.254e-19
9.25997e-14
3.79079e-08
-8.5868e-27
-1.24924e-22
-1.16162e-19
9.29367e-14
3.79858e-08
-8.58303e-27
-1.24822e-22
-1.13298e-19
9.30396e-14
3.80091e-08
-8.55397e-27
-1.24784e-22
-1.28315e-19
9.25228e-14
3.80262e-08
-8.54529e-27
-1.24785e-22
-1.33354e-19
9.23423e-14
3.80257e-08
-8.58976e-27
-1.36377e-22
-6.70684e-19
7.4554e-14
3.61895e-08
-8.58969e-27
-1.36318e-22
-6.22184e-19
1.27126e-13
9.34657e-08
-8.54523e-27
-1.24727e-22
-8.416e-20
1.46059e-13
9.66022e-08
-8.55391e-27
-1.24727e-22
-7.91624e-20
1.46213e-13
9.65932e-08
-8.58296e-27
-1.24766e-22
-6.44287e-20
1.46574e-13
9.65308e-08
-8.58674e-27
-1.24867e-22
-6.73449e-20
1.46433e-13
9.64839e-08
-8.59806e-27
-1.25188e-22
-7.67716e-20
1.45962e-13
9.63283e-08
-8.59965e-27
-1.2524e-22
-7.84564e-20
1.4588e-13
9.63018e-08
-8.60369e-27
-1.25371e-22
-8.2707e-20
1.45661e-13
9.62291e-08
-8.60426e-27
-1.25391e-22
-8.33452e-20
1.45629e-13
9.62184e-08
-8.60525e-27
-1.25424e-22
-8.44437e-20
1.4557e-13
9.6198e-08
-8.60525e-27
-1.25424e-22
-8.44435e-20
1.4557e-13
9.6198e-08
-8.60426e-27
-1.25391e-22
-8.33452e-20
1.45629e-13
9.62184e-08
-8.60369e-27
-1.25371e-22
-8.2707e-20
1.45661e-13
9.62291e-08
-8.59965e-27
-1.2524e-22
-7.84564e-20
1.4588e-13
9.63018e-08
-8.59806e-27
-1.25188e-22
-7.67718e-20
1.45962e-13
9.63283e-08
-8.58674e-27
-1.24867e-22
-6.73447e-20
1.46433e-13
9.64839e-08
-8.58296e-27
-1.24766e-22
-6.44287e-20
1.46574e-13
9.65308e-08
-8.55391e-27
-1.24727e-22
-7.91622e-20
1.46213e-13
9.65932e-08
-8.54523e-27
-1.24727e-22
-8.41597e-20
1.46059e-13
9.66022e-08
-8.58969e-27
-1.36318e-22
-6.22185e-19
1.27126e-13
9.34657e-08
-8.58953e-27
-1.36183e-22
-5.0623e-19
2.34661e-13
1.88614e-07
-8.54508e-27
-1.24595e-22
3.26615e-20
2.54968e-13
1.92911e-07
-8.55377e-27
-1.24594e-22
3.75515e-20
2.55065e-13
1.92883e-07
-8.58282e-27
-1.24634e-22
5.16168e-20
2.55106e-13
1.92736e-07
-8.5866e-27
-1.24736e-22
4.8585e-20
2.54896e-13
1.92658e-07
-8.59791e-27
-1.25057e-22
3.87374e-20
2.54184e-13
1.92404e-07
-8.5995e-27
-1.25109e-22
3.69893e-20
2.54064e-13
1.9236e-07
-8.60355e-27
-1.25241e-22
3.25484e-20
2.53735e-13
1.92241e-07
-8.60411e-27
-1.2526e-22
3.18841e-20
2.53687e-13
1.92223e-07
-8.60511e-27
-1.25294e-22
3.07317e-20
2.53597e-13
1.9219e-07
-8.60511e-27
-1.25294e-22
3.07319e-20
2.53597e-13
1.9219e-07
-8.60411e-27
-1.2526e-22
3.18841e-20
2.53687e-13
1.92223e-07
-8.60355e-27
-1.25241e-22
3.25484e-20
2.53735e-13
1.92241e-07
-8.5995e-27
-1.25109e-22
3.69893e-20
2.54064e-13
1.9236e-07
-8.59791e-27
-1.25057e-22
3.87373e-20
2.54184e-13
1.92404e-07
-8.5866e-27
-1.24736e-22
4.85852e-20
2.54896e-13
1.92658e-07
-8.58282e-27
-1.24634e-22
5.16168e-20
2.55106e-13
1.92736e-07
-8.55376e-27
-1.24594e-22
3.75516e-20
2.55065e-13
1.92883e-07
-8.54508e-27
-1.24595e-22
3.26618e-20
2.54968e-13
1.92911e-07
-8.58953e-27
-1.36183e-22
-5.0623e-19
2.34661e-13
1.88614e-07
-8.58919e-27
-1.35902e-22
-2.74277e-19
4.19516e-13
3.22308e-07
-8.54476e-27
-1.24317e-22
2.65025e-19
4.40951e-13
3.27264e-07
-8.55344e-27
-1.24317e-22
2.69691e-19
4.40946e-13
3.27203e-07
-8.5825e-27
-1.24359e-22
2.82416e-19
4.40418e-13
3.26902e-07
-8.58628e-27
-1.24461e-22
2.79166e-19
4.40101e-13
3.26789e-07
-8.5976e-27
-1.24783e-22
2.68521e-19
4.39007e-13
3.26413e-07
-8.59919e-27
-1.24835e-22
2.66653e-19
4.38828e-13
3.26349e-07
-8.60323e-27
-1.24968e-22
2.61852e-19
4.38325e-13
3.26173e-07
-8.6038e-27
-1.24987e-22
2.61138e-19
4.38253e-13
3.26147e-07
-8.60479e-27
-1.25021e-22
2.59884e-19
4.38113e-13
3.26097e-07
-8.60479e-27
-1.25021e-22
2.59884e-19
4.38113e-13
3.26097e-07
-8.6038e-27
-1.24987e-22
2.61138e-19
4.38253e-13
3.26147e-07
-8.60323e-27
-1.24968e-22
2.61852e-19
4.38325e-13
3.26173e-07
-8.59919e-27
-1.24835e-22
2.66653e-19
4.38828e-13
3.26349e-07
-8.5976e-27
-1.24783e-22
2.6852e-19
4.39007e-13
3.26413e-07
-8.58628e-27
-1.24461e-22
2.79167e-19
4.40101e-13
3.26789e-07
-8.5825e-27
-1.24359e-22
2.82416e-19
4.40418e-13
3.26902e-07
-8.55344e-27
-1.24317e-22
2.69691e-19
4.40946e-13
3.27203e-07
-8.54476e-27
-1.24317e-22
2.65025e-19
4.40951e-13
3.27264e-07
-8.58919e-27
-1.35902e-22
-2.74277e-19
4.19516e-13
3.22308e-07
-8.5885e-27
-1.35365e-22
1.35817e-19
7.0329e-13
4.93141e-07
-8.5441e-27
-1.23788e-22
6.73951e-19
7.2504e-13
4.98081e-07
-8.55279e-27
-1.23788e-22
6.78211e-19
7.24869e-13
4.9797e-07
-8.58185e-27
-1.23834e-22
6.88539e-19
7.2342e-13
4.97415e-07
-8.58563e-27
-1.23937e-22
6.84921e-19
7.22949e-13
4.97257e-07
-8.59695e-27
-1.24261e-22
6.72913e-19
7.21294e-13
4.96728e-07
-8.59854e-27
-1.24314e-22
6.70844e-19
7.21029e-13
4.96639e-07
-8.60259e-27
-1.24447e-22
6.65429e-19
7.20271e-13
4.96393e-07
-8.60315e-27
-1.24467e-22
6.64632e-19
7.20164e-13
4.96357e-07
-8.60415e-27
-1.24501e-22
6.63203e-19
7.19952e-13
4.96287e-07
-8.60415e-27
-1.24501e-22
6.63204e-19
7.19952e-13
4.96287e-07
-8.60315e-27
-1.24467e-22
6.64632e-19
7.20164e-13
4.96357e-07
-8.60259e-27
-1.24447e-22
6.65429e-19
7.20271e-13
4.96393e-07
-8.59854e-27
-1.24314e-22
6.70844e-19
7.21029e-13
4.96639e-07
-8.59695e-27
-1.24261e-22
6.72913e-19
7.21294e-13
4.96728e-07
-8.58563e-27
-1.23937e-22
6.84921e-19
7.22949e-13
4.97257e-07
-8.58185e-27
-1.23834e-22
6.88539e-19
7.2342e-13
4.97415e-07
-8.55279e-27
-1.23788e-22
6.78211e-19
7.24869e-13
4.9797e-07
-8.5441e-27
-1.23788e-22
6.73952e-19
7.2504e-13
4.98081e-07
-8.5885e-27
-1.35365e-22
1.35817e-19
7.0329e-13
4.93141e-07
-8.58722e-27
-1.34419e-22
7.99279e-19
1.10674e-12
6.99557e-07
-8.54286e-27
-1.22856e-22
1.33301e-18
1.12736e-12
7.03708e-07
-8.55154e-27
-1.22856e-22
1.3366e-18
1.12695e-12
7.03527e-07
-8.58062e-27
-1.2291e-22
1.34298e-18
1.12411e-12
7.02587e-07
-8.5844e-27
-1.23014e-22
1.33878e-18
1.12342e-12
7.02375e-07
-8.59573e-27
-1.23343e-22
1.32462e-18
1.12098e-12
7.01646e-07
-8.59732e-27
-1.23396e-22
1.32224e-18
1.1206e-12
7.01528e-07
-8.60137e-27
-1.23531e-22
1.31585e-18
1.11949e-12
7.01192e-07
-8.60193e-27
-1.23551e-22
1.31493e-18
1.11933e-12
7.01143e-07
-8.60293e-27
-1.23585e-22
1.31322e-18
1.11902e-12
7.01048e-07
-8.60293e-27
-1.23585e-22
1.31322e-18
1.11902e-12
7.01048e-07
-8.60193e-27
-1.23551e-22
1.31493e-18
1.11933e-12
7.01143e-07
-8.60137e-27
-1.23531e-22
1.31585e-18
1.11949e-12
7.01192e-07
-8.59732e-27
-1.23396e-22
1.32224e-18
1.1206e-12
7.01528e-07
-8.59573e-27
-1.23343e-22
1.32462e-18
1.12098e-12
7.01646e-07
-8.5844e-27
-1.23014e-22
1.33878e-18
1.12342e-12
7.02375e-07
-8.58062e-27
-1.2291e-22
1.34298e-18
1.12411e-12
7.02587e-07
-8.55154e-27
-1.22856e-22
1.3366e-18
1.12695e-12
7.03527e-07
-8.54286e-27
-1.22856e-22
1.33301e-18
1.12736e-12
7.03708e-07
-8.58722e-27
-1.34419e-22
7.99279e-19
1.10674e-12
6.99557e-07
-8.58493e-27
-1.32854e-22
1.80371e-18
1.64955e-12
9.39654e-07
-8.54064e-27
-1.21317e-22
2.32759e-18
1.66691e-12
9.42127e-07
-8.54932e-27
-1.2132e-22
2.33014e-18
1.66615e-12
9.41852e-07
-8.57842e-27
-1.21387e-22
2.33042e-18
1.66132e-12
9.40369e-07
-8.58221e-27
-1.21492e-22
2.32536e-18
1.66035e-12
9.40091e-07
-8.59355e-27
-1.21827e-22
2.30798e-18
1.65685e-12
9.39106e-07
-8.59514e-27
-1.21881e-22
2.30513e-18
1.65631e-12
9.38952e-07
-8.59919e-27
-1.2202e-22
2.2973e-18
1.65472e-12
9.38502e-07
-8.59976e-27
-1.2204e-22
2.29618e-18
1.6545e-12
9.38438e-07
-8.60076e-27
-1.22075e-22
2.29407e-18
1.65405e-12
9.3831e-07
-8.60076e-27
-1.22075e-22
2.29407e-18
1.65405e-12
9.3831e-07
-8.59976e-27
-1.2204e-22
2.29618e-18
1.6545e-12
9.38438e-07
-8.59919e-27
-1.2202e-22
2.2973e-18
1.65472e-12
9.38502e-07
-8.59514e-27
-1.21881e-22
2.30513e-18
1.65631e-12
9.38952e-07
-8.59355e-27
-1.21827e-22
2.30798e-18
1.65685e-12
9.39106e-07
-8.58221e-27
-1.21492e-22
2.32536e-18
1.66035e-12
9.40091e-07
-8.57842e-27
-1.21387e-22
2.33042e-18
1.66132e-12
9.40369e-07
-8.54932e-27
-1.2132e-22
2.33014e-18
1.66615e-12
9.41852e-07
-8.54064e-27
-1.21317e-22
2.32759e-18
1.66691e-12
9.42127e-07
-8.58493e-27
-1.32854e-22
1.80371e-18
1.64955e-12
9.39654e-07
-8.58112e-27
-1.30464e-22
3.14795e-18
2.19087e-12
9.37367e-07
-8.53693e-27
-1.18971e-22
3.65652e-18
2.20498e-12
9.39899e-07
-8.54562e-27
-1.18976e-22
3.65767e-18
2.20388e-12
9.39628e-07
-8.57476e-27
-1.19063e-22
3.64971e-18
2.19707e-12
9.38167e-07
-8.57856e-27
-1.19171e-22
3.64353e-18
2.19583e-12
9.37891e-07
-8.58991e-27
-1.19516e-22
3.62187e-18
2.19127e-12
9.36917e-07
-8.59151e-27
-1.19572e-22
3.6184e-18
2.19058e-12
9.36764e-07
-8.59557e-27
-1.19715e-22
3.60865e-18
2.18852e-12
9.36318e-07
-8.59614e-27
-1.19735e-22
3.60728e-18
2.18824e-12
9.36255e-07
-8.59714e-27
-1.19772e-22
3.60462e-18
2.18765e-12
9.36129e-07
-8.59714e-27
-1.19772e-22
3.60462e-18
2.18765e-12
9.36129e-07
-8.59614e-27
-1.19735e-22
3.60728e-18
2.18824e-12
9.36255e-07
-8.59557e-27
-1.19715e-22
3.60865e-18
2.18852e-12
9.36318e-07
-8.59151e-27
-1.19572e-22
3.6184e-18
2.19058e-12
9.36764e-07
-8.58992e-27
-1.19516e-22
3.62187e-18
2.19127e-12
9.36917e-07
-8.57856e-27
-1.19171e-22
3.64353e-18
2.19583e-12
9.37891e-07
-8.57476e-27
-1.19063e-22
3.64971e-18
2.19707e-12
9.38167e-07
-8.54562e-27
-1.18976e-22
3.65767e-18
2.20388e-12
9.39628e-07
-8.53693e-27
-1.18971e-22
3.65652e-18
2.20498e-12
9.39899e-07
-8.58112e-27
-1.30464e-22
3.14795e-18
2.19087e-12
9.37367e-07
-8.57511e-27
-1.27042e-22
4.8308e-18
2.73069e-12
9.3515e-07
-8.5311e-27
-1.15615e-22
5.31858e-18
2.74156e-12
9.37738e-07
-8.5398e-27
-1.15625e-22
5.31798e-18
2.74012e-12
9.37471e-07
-8.56901e-27
-1.1574e-22
5.29968e-18
2.73136e-12
9.3603e-07
-8.57281e-27
-1.15852e-22
5.2921e-18
2.72984e-12
9.35757e-07
-8.5842e-27
-1.16212e-22
5.26511e-18
2.72424e-12
9.34793e-07
-8.5858e-27
-1.16269e-22
5.26088e-18
2.7234e-12
9.34642e-07
-8.58988e-27
-1.16418e-22
5.24874e-18
2.72087e-12
9.34201e-07
-8.59045e-27
-1.1644e-22
5.24705e-18
2.72052e-12
9.34138e-07
-8.59145e-27
-1.16478e-22
5.24371e-18
2.7198e-12
9.34013e-07
-8.59145e-27
-1.16478e-22
5.24371e-18
2.7198e-12
9.34013e-07
-8.59045e-27
-1.1644e-22
5.24705e-18
2.72052e-12
9.34138e-07
-8.58988e-27
-1.16418e-22
5.24874e-18
2.72087e-12
9.34201e-07
-8.5858e-27
-1.16269e-22
5.26088e-18
2.7234e-12
9.34642e-07
-8.5842e-27
-1.16212e-22
5.26511e-18
2.72424e-12
9.34793e-07
-8.57281e-27
-1.15852e-22
5.2921e-18
2.72984e-12
9.35757e-07
-8.56901e-27
-1.1574e-22
5.29968e-18
2.73136e-12
9.3603e-07
-8.5398e-27
-1.15625e-22
5.31798e-18
2.74012e-12
9.37471e-07
-8.5311e-27
-1.15615e-22
5.31858e-18
2.74156e-12
9.37738e-07
-8.57511e-27
-1.27042e-22
4.8308e-18
2.73069e-12
9.3515e-07
-8.56613e-27
-1.22382e-22
6.85097e-18
3.26894e-12
9.32995e-07
-8.52238e-27
-1.11049e-22
7.31248e-18
3.27658e-12
9.35638e-07
-8.53109e-27
-1.11065e-22
7.30978e-18
3.27481e-12
9.35375e-07
-8.5604e-27
-1.1122e-22
7.27905e-18
3.26412e-12
9.33954e-07
-8.56421e-27
-1.11337e-22
7.2698e-18
3.26232e-12
9.33684e-07
-8.57565e-27
-1.11716e-22
7.23644e-18
3.25568e-12
9.32729e-07
-8.57726e-27
-1.11776e-22
7.2313e-18
3.25469e-12
9.32579e-07
-8.58135e-27
-1.11934e-22
7.21631e-18
3.25169e-12
9.32142e-07
-8.58193e-27
-1.11957e-22
7.21424e-18
3.25128e-12
9.3208e-07
-8.58294e-27
-1.11998e-22
7.21009e-18
3.25043e-12
9.31956e-07
-8.58294e-27
-1.11998e-22
7.21009e-18
3.25043e-12
9.31956e-07
-8.58193e-27
-1.11957e-22
7.21424e-18
3.25128e-12
9.3208e-07
-8.58135e-27
-1.11934e-22
7.21631e-18
3.25169e-12
9.32142e-07
-8.57726e-27
-1.11776e-22
7.2313e-18
3.25469e-12
9.32579e-07
-8.57565e-27
-1.11716e-22
7.23644e-18
3.25568e-12
9.32729e-07
-8.56421e-27
-1.11337e-22
7.2698e-18
3.26232e-12
9.33684e-07
-8.5604e-27
-1.1122e-22
7.27905e-18
3.26412e-12
9.33954e-07
-8.53109e-27
-1.11065e-22
7.30978e-18
3.27481e-12
9.35375e-07
-8.52238e-27
-1.11049e-22
7.31248e-18
3.27658e-12
9.35638e-07
-8.56613e-27
-1.22382e-22
6.85097e-18
3.26894e-12
9.32995e-07
-8.55324e-27
-1.16279e-22
9.20707e-18
3.80552e-12
9.30899e-07
-8.50987e-27
-1.05074e-22
9.6368e-18
3.80996e-12
9.33594e-07
-8.51861e-27
-1.05099e-22
9.63166e-18
3.80786e-12
9.33335e-07
-8.54805e-27
-1.05305e-22
9.58645e-18
3.79525e-12
9.31933e-07
-8.55188e-27
-1.05429e-22
9.57527e-18
3.79318e-12
9.31665e-07
-8.56339e-27
-1.05833e-22
9.5345e-18
3.78552e-12
9.3072e-07
-8.565e-27
-1.05897e-22
9.52832e-18
3.78438e-12
9.30572e-07
-8.56913e-27
-1.06067e-22
9.51e-18
3.78092e-12
9.30139e-07
-8.56971e-27
-1.06091e-22
9.5075e-18
3.78045e-12
9.30078e-07
-8.57073e-27
-1.06135e-22
9.50241e-18
3.77947e-12
9.29954e-07
-8.57073e-27
-1.06135e-22
9.50241e-18
3.77947e-12
9.29954e-07
-8.56971e-27
-1.06091e-22
9.5075e-18
3.78045e-12
9.30078e-07
-8.56913e-27
-1.06067e-22
9.51e-18
3.78092e-12
9.30139e-07
-8.565e-27
-1.05897e-22
9.52832e-18
3.78438e-12
9.30572e-07
-8.56339e-27
-1.05833e-22
9.5345e-18
3.78552e-12
9.3072e-07
-8.55188e-27
-1.05429e-22
9.57527e-18
3.79318e-12
9.31665e-07
-8.54805e-27
-1.05305e-22
9.58645e-18
3.79525e-12
9.31933e-07
-8.51861e-27
-1.05099e-22
9.63166e-18
3.80786e-12
9.33335e-07
-8.50987e-27
-1.05074e-22
9.6368e-18
3.80996e-12
9.33594e-07
-8.55324e-27
-1.16279e-22
9.20707e-18
3.80552e-12
9.30899e-07
-8.53538e-27
-1.08531e-22
1.18976e-17
4.34038e-12
9.28857e-07
-8.49255e-27
-9.74928e-23
1.22901e-17
4.34161e-12
9.31603e-07
-8.50132e-27
-9.75281e-23
1.22822e-17
4.33919e-12
9.31347e-07
-8.53095e-27
-9.77994e-23
1.22204e-17
4.32469e-12
9.29964e-07
-8.53481e-27
-9.79316e-23
1.22071e-17
4.32235e-12
9.29699e-07
-8.54641e-27
-9.83686e-23
1.21579e-17
4.31368e-12
9.28762e-07
-8.54804e-27
-9.8437e-23
1.21505e-17
4.31239e-12
9.28615e-07
-8.55221e-27
-9.86209e-23
1.21284e-17
4.30847e-12
9.28186e-07
-8.55279e-27
-9.8647e-23
1.21254e-17
4.30794e-12
9.28126e-07
-8.55383e-27
-9.86952e-23
1.21192e-17
4.30682e-12
9.28004e-07
-8.55382e-27
-9.86952e-23
1.21192e-17
4.30682e-12
9.28004e-07
-8.55279e-27
-9.8647e-23
1.21254e-17
4.30794e-12
9.28126e-07
-8.55221e-27
-9.86209e-23
1.21284e-17
4.30847e-12
9.28186e-07
-8.54804e-27
-9.8437e-23
1.21505e-17
4.31239e-12
9.28615e-07
-8.54641e-27
-9.83686e-23
1.21579e-17
4.31368e-12
9.28762e-07
-8.53481e-27
-9.79316e-23
1.22071e-17
4.32235e-12
9.29699e-07
-8.53095e-27
-9.77994e-23
1.22204e-17
4.32469e-12
9.29964e-07
-8.50132e-27
-9.75281e-23
1.22822e-17
4.33919e-12
9.31347e-07
-8.49255e-27
-9.74927e-23
1.22901e-17
4.34161e-12
9.31603e-07
-8.53538e-27
-1.08531e-22
1.18976e-17
4.34038e-12
9.28857e-07
-8.51136e-27
-9.89339e-23
1.49211e-17
4.87341e-12
9.26865e-07
-8.46927e-27
-8.81071e-23
1.52707e-17
4.87146e-12
9.2966e-07
-8.47808e-27
-8.81555e-23
1.52597e-17
4.86873e-12
9.29407e-07
-8.50798e-27
-8.85079e-23
1.51795e-17
4.85236e-12
9.28042e-07
-8.51187e-27
-8.86504e-23
1.51637e-17
4.84975e-12
9.27779e-07
-8.5236e-27
-8.91274e-23
1.5105e-17
4.84007e-12
9.26851e-07
-8.52525e-27
-8.92015e-23
1.50963e-17
4.83864e-12
9.26706e-07
-8.52947e-27
-8.94033e-23
1.507e-17
4.83426e-12
9.26281e-07
-8.53006e-27
-8.94317e-23
1.50665e-17
4.83367e-12
9.26221e-07
-8.53111e-27
-8.9485e-23
1.50591e-17
4.83243e-12
9.261e-07
-8.53111e-27
-8.9485e-23
1.50591e-17
4.83243e-12
9.261e-07
-8.53006e-27
-8.94317e-23
1.50665e-17
4.83367e-12
9.26221e-07
-8.52947e-27
-8.94033e-23
1.507e-17
4.83426e-12
9.26281e-07
-8.52525e-27
-8.92015e-23
1.50963e-17
4.83864e-12
9.26706e-07
-8.5236e-27
-8.91275e-23
1.5105e-17
4.84007e-12
9.26851e-07
-8.51187e-27
-8.86504e-23
1.51637e-17
4.84975e-12
9.27779e-07
-8.50798e-27
-8.85079e-23
1.51795e-17
4.85236e-12
9.28042e-07
-8.47808e-27
-8.81555e-23
1.52597e-17
4.86873e-12
9.29407e-07
-8.46927e-27
-8.81071e-23
1.52707e-17
4.87146e-12
9.2966e-07
-8.51136e-27
-9.89339e-23
1.49211e-17
4.87341e-12
9.26865e-07
-8.47986e-27
-8.72867e-23
1.82759e-17
5.40455e-12
9.2492e-07
-8.43875e-27
-7.67215e-23
1.85771e-17
5.39943e-12
9.27761e-07
-8.44762e-27
-7.67859e-23
1.85627e-17
5.39638e-12
9.27512e-07
-8.47787e-27
-7.72365e-23
1.8462e-17
5.37816e-12
9.26164e-07
-8.4818e-27
-7.73914e-23
1.84435e-17
5.3753e-12
9.25904e-07
-8.49369e-27
-7.79171e-23
1.83744e-17
5.36461e-12
9.24984e-07
-8.49537e-27
-7.79979e-23
1.83642e-17
5.36304e-12
9.2484e-07
-8.49967e-27
-7.82214e-23
1.83332e-17
5.35821e-12
9.24419e-07
-8.50027e-27
-7.82526e-23
1.83291e-17
5.35756e-12
9.24359e-07
-8.50133e-27
-7.8312e-23
1.83204e-17
5.35619e-12
9.24239e-07
-8.50133e-27
-7.8312e-23
1.83204e-17
5.35619e-12
9.24239e-07
-8.50027e-27
-7.82526e-23
1.83291e-17
5.35756e-12
9.24359e-07
-8.49967e-27
-7.82214e-23
1.83332e-17
5.35821e-12
9.24419e-07
-8.49537e-27
-7.79979e-23
1.83642e-17
5.36304e-12
9.2484e-07
-8.49369e-27
-7.79171e-23
1.83744e-17
5.36461e-12
9.24984e-07
-8.4818e-27
-7.73914e-23
1.84435e-17
5.3753e-12
9.25904e-07
-8.47786e-27
-7.72365e-23
1.8462e-17
5.37816e-12
9.26164e-07
-8.44762e-27
-7.67859e-23
1.85627e-17
5.39638e-12
9.27512e-07
-8.43875e-27
-7.67215e-23
1.85771e-17
5.39943e-12
9.27761e-07
-8.47986e-27
-8.72868e-23
1.82759e-17
5.40455e-12
9.2492e-07
-8.43943e-27
-7.33893e-23
2.19602e-17
5.93369e-12
9.23015e-07
-8.3996e-27
-6.31414e-23
2.22076e-17
5.92542e-12
9.25902e-07
-8.40854e-27
-6.32249e-23
2.21894e-17
5.92206e-12
9.25656e-07
-8.43923e-27
-6.37924e-23
2.20662e-17
5.90202e-12
9.24326e-07
-8.44322e-27
-6.39621e-23
2.20448e-17
5.8989e-12
9.24068e-07
-8.45533e-27
-6.45457e-23
2.19643e-17
5.88722e-12
9.23156e-07
-8.45703e-27
-6.46345e-23
2.19525e-17
5.88551e-12
9.23013e-07
-8.46143e-27
-6.48839e-23
2.19164e-17
5.88023e-12
9.22595e-07
-8.46204e-27
-6.49184e-23
2.19116e-17
5.87953e-12
9.22536e-07
-8.46313e-27
-6.49852e-23
2.19015e-17
5.87803e-12
9.22418e-07
-8.46313e-27
-6.49852e-23
2.19015e-17
5.87803e-12
9.22418e-07
-8.46204e-27
-6.49184e-23
2.19116e-17
5.87953e-12
9.22536e-07
-8.46142e-27
-6.48839e-23
2.19164e-17
5.88023e-12
9.22595e-07
-8.45703e-27
-6.46345e-23
2.19525e-17
5.88551e-12
9.23013e-07
-8.45533e-27
-6.45457e-23
2.19643e-17
5.88722e-12
9.23156e-07
-8.44322e-27
-6.39621e-23
2.20448e-17
5.8989e-12
9.24068e-07
-8.43923e-27
-6.37924e-23
2.20662e-17
5.90202e-12
9.24326e-07
-8.40854e-27
-6.32249e-23
2.21894e-17
5.92206e-12
9.25656e-07
-8.3996e-27
-6.31414e-23
2.22076e-17
5.92542e-12
9.25902e-07
-8.43943e-27
-7.33893e-23
2.19602e-17
5.93369e-12
9.23015e-07
-8.38848e-27
-5.70425e-23
2.59724e-17
6.46075e-12
9.21144e-07
-8.35029e-27
-4.71733e-23
2.61602e-17
6.44933e-12
9.24075e-07
-8.35932e-27
-4.72792e-23
2.61379e-17
6.44567e-12
9.23833e-07
-8.39056e-27
-4.79842e-23
2.59905e-17
6.42384e-12
9.22519e-07
-8.39462e-27
-4.81712e-23
2.59659e-17
6.42046e-12
9.22262e-07
-8.407e-27
-4.88227e-23
2.5873e-17
6.40781e-12
9.21359e-07
-8.40874e-27
-4.89209e-23
2.58595e-17
6.40596e-12
9.21217e-07
-8.41325e-27
-4.92006e-23
2.58178e-17
6.40024e-12
9.20803e-07
-8.41388e-27
-4.9239e-23
2.58123e-17
6.39948e-12
9.20744e-07
-8.41501e-27
-4.93144e-23
2.58006e-17
6.39785e-12
9.20627e-07
-8.41501e-27
-4.93144e-23
2.58006e-17
6.39785e-12
9.20627e-07
-8.41388e-27
-4.9239e-23
2.58123e-17
6.39948e-12
9.20744e-07
-8.41325e-27
-4.92006e-23
2.58178e-17
6.40024e-12
9.20803e-07
-8.40874e-27
-4.89209e-23
2.58595e-17
6.40596e-12
9.21217e-07
-8.407e-27
-4.88227e-23
2.5873e-17
6.40781e-12
9.21359e-07
-8.39462e-27
-4.81712e-23
2.59659e-17
6.42046e-12
9.22262e-07
-8.39056e-27
-4.79841e-23
2.59905e-17
6.42384e-12
9.22519e-07
-8.35932e-27
-4.72792e-23
2.61379e-17
6.44567e-12
9.23833e-07
-8.35029e-27
-4.71733e-23
2.61602e-17
6.44933e-12
9.24075e-07
-8.38848e-27
-5.70425e-23
2.59724e-17
6.46075e-12
9.21144e-07
-8.32529e-27
-3.80484e-23
3.03105e-17
6.98562e-12
9.19273e-07
-8.28916e-27
-2.86253e-23
3.04332e-17
6.97107e-12
9.22248e-07
-8.2983e-27
-2.87572e-23
3.04065e-17
6.96711e-12
9.22008e-07
-8.33023e-27
-2.96214e-23
3.02329e-17
6.94351e-12
9.20711e-07
-8.33438e-27
-2.98285e-23
3.02049e-17
6.93988e-12
9.20457e-07
-8.34709e-27
-3.05588e-23
3.00986e-17
6.92626e-12
9.19561e-07
-8.34887e-27
-3.06678e-23
3.00833e-17
6.92427e-12
9.1942e-07
-8.35354e-27
-3.09827e-23
3.00356e-17
6.91812e-12
9.1901e-07
-8.35419e-27
-3.10256e-23
3.00293e-17
6.9173e-12
9.18952e-07
-8.35536e-27
-3.1111e-23
3.00159e-17
6.91555e-12
9.18835e-07
-8.35536e-27
-3.1111e-23
3.00159e-17
6.91555e-12
9.18835e-07
-8.35419e-27
-3.10256e-23
3.00293e-17
6.9173e-12
9.18952e-07
-8.35354e-27
-3.09827e-23
3.00356e-17
6.91812e-12
9.1901e-07
-8.34887e-27
-3.06678e-23
3.00833e-17
6.92427e-12
9.1942e-07
-8.34709e-27
-3.05589e-23
3.00986e-17
6.92626e-12
9.19561e-07
-8.33437e-27
-2.98285e-23
3.02049e-17
6.93988e-12
9.20457e-07
-8.33023e-27
-2.96214e-23
3.02329e-17
6.94351e-12
9.20711e-07
-8.2983e-27
-2.87572e-23
3.04065e-17
6.96711e-12
9.22008e-07
-8.28916e-27
-2.86253e-23
3.04332e-17
6.97107e-12
9.22248e-07
-8.32529e-27
-3.80484e-23
3.03105e-17
6.98562e-12
9.19273e-07
0.000140431
1.85712e-05
2.91245e-07
-8.5996e-10
-6.92944e-12
1.47697e-14
1.97074e-14
1.97824e-14
1.97986e-14
1.98014e-14
1.98028e-14
1.98123e-14
1.98608e-14
1.99198e-14
2.04066e-14
2.08233e-14
2.52024e-14
2.75754e-14
8.79657e-14
1.02843e-13
0.000158144
2.15474e-05
3.80941e-07
-3.8037e-10
-6.95418e-12
1.43158e-14
1.97049e-14
1.97817e-14
1.97982e-14
1.98011e-14
1.98019e-14
1.98096e-14
1.98591e-14
1.99191e-14
2.04142e-14
2.08358e-14
2.52722e-14
2.76609e-14
8.87485e-14
1.03799e-13
0.000158299
2.15675e-05
3.81293e-07
-3.77282e-10
-6.94817e-12
1.43167e-14
1.97049e-14
1.97817e-14
1.97983e-14
1.98011e-14
1.98019e-14
1.98097e-14
1.98593e-14
1.99193e-14
2.04146e-14
2.08363e-14
2.52735e-14
2.76623e-14
8.87563e-14
1.03807e-13
0.000158781
2.16042e-05
3.80779e-07
-3.7021e-10
-6.89313e-12
1.43528e-14
1.97048e-14
1.97817e-14
1.97983e-14
1.98011e-14
1.98021e-14
1.98105e-14
1.98602e-14
1.99203e-14
2.04161e-14
2.08381e-14
2.52781e-14
2.76672e-14
8.87805e-14
1.03828e-13
0.000158657
2.15821e-05
3.8001e-07
-3.74142e-10
-6.89207e-12
1.43566e-14
1.97048e-14
1.97817e-14
1.97983e-14
1.98011e-14
1.98021e-14
1.98105e-14
1.98602e-14
1.99203e-14
2.04162e-14
2.08382e-14
2.52782e-14
2.76673e-14
8.8781e-14
1.03828e-13
0.000158281
2.15051e-05
3.77224e-07
-3.87761e-10
-6.88611e-12
1.43713e-14
1.97048e-14
1.97817e-14
1.97983e-14
1.98011e-14
1.98021e-14
1.98106e-14
1.98603e-14
1.99204e-14
2.04163e-14
2.08383e-14
2.52784e-14
2.76675e-14
8.87819e-14
1.03829e-13
0.00015821
2.14925e-05
3.76798e-07
-3.90058e-10
-6.88628e-12
1.43729e-14
1.97048e-14
1.97817e-14
1.97983e-14
1.98011e-14
1.98021e-14
1.98106e-14
1.98603e-14
1.99204e-14
2.04163e-14
2.08383e-14
2.52785e-14
2.76676e-14
8.8782e-14
1.03829e-13
0.000158034
2.14572e-05
3.75546e-07
-3.96538e-10
-6.88581e-12
1.43779e-14
1.97048e-14
1.97818e-14
1.97983e-14
1.98011e-14
1.98021e-14
1.98106e-14
1.98603e-14
1.99204e-14
2.04163e-14
2.08383e-14
2.52785e-14
2.76676e-14
8.8782e-14
1.03829e-13
0.000158007
2.14523e-05
3.7538e-07
-3.97454e-10
-6.886e-12
1.43784e-14
1.97048e-14
1.97818e-14
1.97983e-14
1.98011e-14
1.98021e-14
1.98106e-14
1.98603e-14
1.99204e-14
2.04163e-14
2.08383e-14
2.52785e-14
2.76676e-14
8.8782e-14
1.03829e-13
0.00015796
2.14428e-05
3.75041e-07
-3.9924e-10
-6.88607e-12
1.43796e-14
1.97048e-14
1.97817e-14
1.97983e-14
1.98011e-14
1.98021e-14
1.98106e-14
1.98603e-14
1.99204e-14
2.04163e-14
2.08383e-14
2.52785e-14
2.76676e-14
8.8782e-14
1.03829e-13
0.00015796
2.14428e-05
3.75041e-07
-3.9924e-10
-6.88607e-12
1.43796e-14
1.97048e-14
1.97817e-14
1.97983e-14
1.98011e-14
1.98021e-14
1.98106e-14
1.98603e-14
1.99204e-14
2.04163e-14
2.08383e-14
2.52785e-14
2.76676e-14
8.8782e-14
1.03829e-13
0.000158007
2.14523e-05
3.7538e-07
-3.97454e-10
-6.886e-12
1.43784e-14
1.97048e-14
1.97818e-14
1.97983e-14
1.98011e-14
1.98021e-14
1.98106e-14
1.98603e-14
1.99204e-14
2.04163e-14
2.08383e-14
2.52785e-14
2.76676e-14
8.8782e-14
1.03829e-13
0.000158034
2.14572e-05
3.75546e-07
-3.96538e-10
-6.88581e-12
1.43779e-14
1.97048e-14
1.97818e-14
1.97983e-14
1.98011e-14
1.98021e-14
1.98106e-14
1.98603e-14
1.99204e-14
2.04163e-14
2.08383e-14
2.52785e-14
2.76676e-14
8.8782e-14
1.03829e-13
0.00015821
2.14925e-05
3.76798e-07
-3.90058e-10
-6.88628e-12
1.43729e-14
1.97048e-14
1.97817e-14
1.97983e-14
1.98011e-14
1.98021e-14
1.98106e-14
1.98603e-14
1.99204e-14
2.04163e-14
2.08383e-14
2.52785e-14
2.76676e-14
8.8782e-14
1.03829e-13
0.000158281
2.15051e-05
3.77224e-07
-3.87761e-10
-6.88611e-12
1.43713e-14
1.97048e-14
1.97817e-14
1.97983e-14
1.98011e-14
1.98021e-14
1.98106e-14
1.98603e-14
1.99204e-14
2.04163e-14
2.08383e-14
2.52784e-14
2.76675e-14
8.87819e-14
1.03829e-13
0.000158657
2.15821e-05
3.8001e-07
-3.74142e-10
-6.89207e-12
1.43566e-14
1.97048e-14
1.97817e-14
1.97983e-14
1.98011e-14
1.98021e-14
1.98105e-14
1.98602e-14
1.99203e-14
2.04162e-14
2.08382e-14
2.52782e-14
2.76673e-14
8.8781e-14
1.03828e-13
0.000158781
2.16042e-05
3.80779e-07
-3.7021e-10
-6.89313e-12
1.43528e-14
1.97048e-14
1.97817e-14
1.97983e-14
1.98011e-14
1.98021e-14
1.98105e-14
1.98602e-14
1.99203e-14
2.04161e-14
2.08381e-14
2.52781e-14
2.76672e-14
8.87805e-14
1.03828e-13
0.000158299
2.15675e-05
3.81293e-07
-3.77282e-10
-6.94817e-12
1.43167e-14
1.97049e-14
1.97817e-14
1.97983e-14
1.98011e-14
1.98019e-14
1.98097e-14
1.98593e-14
1.99193e-14
2.04146e-14
2.08363e-14
2.52735e-14
2.76623e-14
8.87563e-14
1.03807e-13
0.000158144
2.15474e-05
3.80941e-07
-3.80369e-10
-6.95418e-12
1.43158e-14
1.97049e-14
1.97817e-14
1.97982e-14
1.98011e-14
1.98019e-14
1.98096e-14
1.98591e-14
1.99191e-14
2.04142e-14
2.08358e-14
2.52722e-14
2.76609e-14
8.87485e-14
1.03799e-13
0.000140431
1.85712e-05
2.91245e-07
-8.5996e-10
-6.92944e-12