/*--------------------------------*- C++ -*----------------------------------*\
  =========                 |
  \\      /  F ield         | OpenFOAM: The Open Source CFD Toolbox
   \\    /   O peration     | Website:  https://openfoam.org
    \\  /    A nd           | Version:  8
     \\/     M anipulation  |
\*---------------------------------------------------------------------------*/
FoamFile
{
    version     2.0;
    format      ascii;
    class       volScalarField;
    location    "4.8";
    object      H2;
}
// * * * * * * * * * * * * * * * * * * * * * * * * * * * * * * * * * * * * * //

dimensions      [0 1 -1 0 0 0 0];

internalField   nonuniform List<scalar> 
180000
(
1.59932e-24
3.27842e-20
5.68598e-16
8.18177e-12
9.86168e-08
1.85014e-24
3.70423e-20
6.31625e-16
8.96238e-12
1.06674e-07
1.85322e-24
3.70911e-20
6.32264e-16
8.96886e-12
1.0672e-07
1.86029e-24
3.72053e-20
6.33785e-16
8.98503e-12
1.06843e-07
1.85859e-24
3.71739e-20
6.33262e-16
8.97764e-12
1.06752e-07
1.85349e-24
3.70818e-20
6.3177e-16
8.95722e-12
1.06509e-07
1.85249e-24
3.70634e-20
6.31467e-16
8.95295e-12
1.06457e-07
1.8501e-24
3.70201e-20
6.30765e-16
8.9433e-12
1.06342e-07
1.84972e-24
3.7013e-20
6.30646e-16
8.94161e-12
1.06321e-07
1.84908e-24
3.70014e-20
6.30455e-16
8.93897e-12
1.06289e-07
1.84908e-24
3.70014e-20
6.30455e-16
8.93897e-12
1.06289e-07
1.84972e-24
3.7013e-20
6.30646e-16
8.94161e-12
1.06321e-07
1.8501e-24
3.70201e-20
6.30765e-16
8.9433e-12
1.06342e-07
1.85249e-24
3.70634e-20
6.31467e-16
8.95295e-12
1.06457e-07
1.85349e-24
3.70818e-20
6.3177e-16
8.95722e-12
1.06509e-07
1.85859e-24
3.71739e-20
6.33262e-16
8.97764e-12
1.06752e-07
1.86029e-24
3.72053e-20
6.33785e-16
8.98503e-12
1.06843e-07
1.85322e-24
3.70911e-20
6.32264e-16
8.96886e-12
1.0672e-07
1.85014e-24
3.70423e-20
6.31625e-16
8.96238e-12
1.06674e-07
1.59932e-24
3.27842e-20
5.68598e-16
8.18177e-12
9.86168e-08
1.5993e-24
3.27833e-20
5.6856e-16
8.18448e-12
1.03987e-07
1.85013e-24
3.70412e-20
6.31583e-16
8.96511e-12
1.12247e-07
1.8532e-24
3.709e-20
6.32222e-16
8.97159e-12
1.1229e-07
1.86028e-24
3.72042e-20
6.33743e-16
8.98775e-12
1.12401e-07
1.85857e-24
3.71728e-20
6.3322e-16
8.98035e-12
1.12304e-07
1.85347e-24
3.70807e-20
6.31729e-16
8.95992e-12
1.12046e-07
1.85247e-24
3.70623e-20
6.31426e-16
8.95565e-12
1.11991e-07
1.85009e-24
3.7019e-20
6.30723e-16
8.94599e-12
1.11868e-07
1.8497e-24
3.70119e-20
6.30604e-16
8.9443e-12
1.11846e-07
1.84907e-24
3.70003e-20
6.30414e-16
8.94166e-12
1.11812e-07
1.84907e-24
3.70003e-20
6.30414e-16
8.94166e-12
1.11812e-07
1.8497e-24
3.70119e-20
6.30604e-16
8.9443e-12
1.11846e-07
1.85009e-24
3.7019e-20
6.30723e-16
8.94599e-12
1.11868e-07
1.85247e-24
3.70623e-20
6.31426e-16
8.95565e-12
1.11991e-07
1.85347e-24
3.70807e-20
6.31729e-16
8.95992e-12
1.12046e-07
1.85857e-24
3.71728e-20
6.33221e-16
8.98035e-12
1.12304e-07
1.86028e-24
3.72042e-20
6.33743e-16
8.98775e-12
1.12401e-07
1.8532e-24
3.709e-20
6.32222e-16
8.97159e-12
1.1229e-07
1.85013e-24
3.70412e-20
6.31583e-16
8.96511e-12
1.12247e-07
1.5993e-24
3.27833e-20
5.6856e-16
8.18448e-12
1.03987e-07
1.59929e-24
3.27815e-20
5.68502e-16
8.19987e-12
1.26596e-07
1.85011e-24
3.7039e-20
6.31518e-16
8.98071e-12
1.3541e-07
1.85319e-24
3.70878e-20
6.32158e-16
8.98718e-12
1.35444e-07
1.86026e-24
3.72021e-20
6.33679e-16
9.00328e-12
1.35525e-07
1.85856e-24
3.71706e-20
6.33157e-16
8.99586e-12
1.35413e-07
1.85346e-24
3.70785e-20
6.31665e-16
8.97538e-12
1.35112e-07
1.85246e-24
3.70602e-20
6.31362e-16
8.97111e-12
1.35047e-07
1.85008e-24
3.70169e-20
6.3066e-16
8.96142e-12
1.34903e-07
1.84969e-24
3.70097e-20
6.30541e-16
8.95973e-12
1.34877e-07
1.84905e-24
3.69981e-20
6.30351e-16
8.95708e-12
1.34837e-07
1.84905e-24
3.69981e-20
6.30351e-16
8.95708e-12
1.34837e-07
1.84969e-24
3.70097e-20
6.30541e-16
8.95973e-12
1.34877e-07
1.85008e-24
3.70169e-20
6.3066e-16
8.96142e-12
1.34903e-07
1.85246e-24
3.70602e-20
6.31362e-16
8.97111e-12
1.35047e-07
1.85346e-24
3.70785e-20
6.31665e-16
8.97538e-12
1.35112e-07
1.85856e-24
3.71707e-20
6.33157e-16
8.99586e-12
1.35413e-07
1.86026e-24
3.72021e-20
6.33679e-16
9.00328e-12
1.35525e-07
1.85319e-24
3.70878e-20
6.32158e-16
8.98718e-12
1.35444e-07
1.85011e-24
3.7039e-20
6.31518e-16
8.98071e-12
1.3541e-07
1.59929e-24
3.27815e-20
5.68502e-16
8.19987e-12
1.26596e-07
1.59928e-24
3.27782e-20
5.68445e-16
8.24301e-12
1.75515e-07
1.85009e-24
3.70353e-20
6.31452e-16
9.02421e-12
1.85043e-07
1.85317e-24
3.70841e-20
6.32092e-16
9.03065e-12
1.85063e-07
1.86025e-24
3.71984e-20
6.33613e-16
9.0466e-12
1.85108e-07
1.85855e-24
3.71669e-20
6.33091e-16
9.03915e-12
1.84972e-07
1.85344e-24
3.70748e-20
6.316e-16
9.01856e-12
1.84612e-07
1.85245e-24
3.70565e-20
6.31297e-16
9.01427e-12
1.84534e-07
1.85006e-24
3.70132e-20
6.30595e-16
9.00453e-12
1.84361e-07
1.84967e-24
3.70061e-20
6.30476e-16
9.00283e-12
1.84329e-07
1.84904e-24
3.69944e-20
6.30286e-16
9.00017e-12
1.8428e-07
1.84904e-24
3.69944e-20
6.30286e-16
9.00017e-12
1.8428e-07
1.84967e-24
3.70061e-20
6.30476e-16
9.00283e-12
1.84329e-07
1.85006e-24
3.70132e-20
6.30595e-16
9.00453e-12
1.84361e-07
1.85245e-24
3.70565e-20
6.31297e-16
9.01427e-12
1.84534e-07
1.85344e-24
3.70748e-20
6.316e-16
9.01856e-12
1.84612e-07
1.85855e-24
3.71669e-20
6.33091e-16
9.03915e-12
1.84972e-07
1.86025e-24
3.71984e-20
6.33613e-16
9.0466e-12
1.85108e-07
1.85317e-24
3.70841e-20
6.32092e-16
9.03065e-12
1.85063e-07
1.85009e-24
3.70353e-20
6.31452e-16
9.02421e-12
1.85043e-07
1.59928e-24
3.27782e-20
5.68445e-16
8.24301e-12
1.75515e-07
1.59926e-24
3.27736e-20
5.68415e-16
8.33079e-12
2.53503e-07
1.85007e-24
3.703e-20
6.31409e-16
9.1123e-12
2.63666e-07
1.85315e-24
3.70789e-20
6.3205e-16
9.11869e-12
2.63665e-07
1.86023e-24
3.71932e-20
6.33571e-16
9.13438e-12
2.63656e-07
1.85853e-24
3.71617e-20
6.33049e-16
9.12686e-12
2.63493e-07
1.85342e-24
3.70696e-20
6.31558e-16
9.10608e-12
2.63062e-07
1.85243e-24
3.70513e-20
6.31255e-16
9.10175e-12
2.62967e-07
1.85004e-24
3.7008e-20
6.30553e-16
9.09192e-12
2.62759e-07
1.84966e-24
3.70009e-20
6.30434e-16
9.0902e-12
2.6272e-07
1.84902e-24
3.69892e-20
6.30244e-16
9.08752e-12
2.62661e-07
1.84902e-24
3.69892e-20
6.30244e-16
9.08752e-12
2.62661e-07
1.84966e-24
3.70009e-20
6.30434e-16
9.0902e-12
2.6272e-07
1.85004e-24
3.7008e-20
6.30553e-16
9.09192e-12
2.62759e-07
1.85243e-24
3.70513e-20
6.31255e-16
9.10175e-12
2.62967e-07
1.85342e-24
3.70696e-20
6.31558e-16
9.10608e-12
2.63062e-07
1.85853e-24
3.71617e-20
6.33049e-16
9.12686e-12
2.63493e-07
1.86023e-24
3.71932e-20
6.33571e-16
9.13438e-12
2.63656e-07
1.85315e-24
3.70789e-20
6.3205e-16
9.11869e-12
2.63665e-07
1.85007e-24
3.703e-20
6.31409e-16
9.1123e-12
2.63666e-07
1.59926e-24
3.27736e-20
5.68415e-16
8.33079e-12
2.53503e-07
1.59924e-24
3.27678e-20
5.6845e-16
8.48082e-12
3.61637e-07
1.85005e-24
3.70234e-20
6.31427e-16
9.26234e-12
3.72229e-07
1.85313e-24
3.70724e-20
6.32069e-16
9.26862e-12
3.72196e-07
1.86021e-24
3.71866e-20
6.33589e-16
9.28385e-12
3.72086e-07
1.8585e-24
3.71552e-20
6.33067e-16
9.27623e-12
3.71889e-07
1.8534e-24
3.70631e-20
6.31577e-16
9.25516e-12
3.71367e-07
1.8524e-24
3.70448e-20
6.31274e-16
9.25076e-12
3.71251e-07
1.85002e-24
3.70015e-20
6.30572e-16
9.2408e-12
3.70998e-07
1.84963e-24
3.69944e-20
6.30453e-16
9.23905e-12
3.7095e-07
1.849e-24
3.69828e-20
6.30263e-16
9.23632e-12
3.70878e-07
1.849e-24
3.69828e-20
6.30263e-16
9.23632e-12
3.70878e-07
1.84963e-24
3.69944e-20
6.30453e-16
9.23905e-12
3.7095e-07
1.85002e-24
3.70015e-20
6.30572e-16
9.2408e-12
3.70998e-07
1.8524e-24
3.70448e-20
6.31274e-16
9.25076e-12
3.71251e-07
1.8534e-24
3.70631e-20
6.31577e-16
9.25516e-12
3.71367e-07
1.8585e-24
3.71552e-20
6.33067e-16
9.27623e-12
3.71889e-07
1.86021e-24
3.71866e-20
6.33589e-16
9.28385e-12
3.72086e-07
1.85313e-24
3.70724e-20
6.32069e-16
9.26862e-12
3.72196e-07
1.85005e-24
3.70234e-20
6.31427e-16
9.26234e-12
3.72229e-07
1.59924e-24
3.27678e-20
5.6845e-16
8.48082e-12
3.61637e-07
1.59921e-24
3.2761e-20
5.68601e-16
8.71153e-12
5.01363e-07
1.85001e-24
3.70156e-20
6.31556e-16
9.49242e-12
5.12074e-07
1.8531e-24
3.70647e-20
6.32199e-16
9.49856e-12
5.11996e-07
1.86018e-24
3.71789e-20
6.33719e-16
9.51305e-12
5.11707e-07
1.85848e-24
3.71475e-20
6.33197e-16
9.50528e-12
5.11466e-07
1.85338e-24
3.70554e-20
6.31706e-16
9.48375e-12
5.1082e-07
1.85238e-24
3.70371e-20
6.31403e-16
9.47927e-12
5.10678e-07
1.84999e-24
3.69939e-20
6.30701e-16
9.46909e-12
5.10366e-07
1.84961e-24
3.69867e-20
6.30583e-16
9.46731e-12
5.10307e-07
1.84897e-24
3.69751e-20
6.30392e-16
9.46451e-12
5.10217e-07
1.84897e-24
3.69751e-20
6.30392e-16
9.46451e-12
5.10217e-07
1.84961e-24
3.69867e-20
6.30583e-16
9.46731e-12
5.10307e-07
1.84999e-24
3.69939e-20
6.30701e-16
9.46909e-12
5.10366e-07
1.85238e-24
3.70371e-20
6.31403e-16
9.47927e-12
5.10678e-07
1.85338e-24
3.70554e-20
6.31706e-16
9.48375e-12
5.1082e-07
1.85848e-24
3.71475e-20
6.33197e-16
9.50528e-12
5.11466e-07
1.86018e-24
3.71789e-20
6.33719e-16
9.51305e-12
5.11707e-07
1.8531e-24
3.70647e-20
6.32199e-16
9.49856e-12
5.11996e-07
1.85001e-24
3.70156e-20
6.31556e-16
9.49242e-12
5.12074e-07
1.59921e-24
3.2761e-20
5.68601e-16
8.71153e-12
5.01363e-07
1.59919e-24
3.27533e-20
5.68933e-16
9.04225e-12
6.74144e-07
1.84998e-24
3.70068e-20
6.3186e-16
9.82147e-12
6.84531e-07
1.85307e-24
3.7056e-20
6.32504e-16
9.82738e-12
6.8439e-07
1.86015e-24
3.71702e-20
6.34021e-16
9.84076e-12
6.83817e-07
1.85844e-24
3.71388e-20
6.33499e-16
9.83278e-12
6.83521e-07
1.85334e-24
3.70468e-20
6.32008e-16
9.8106e-12
6.82709e-07
1.85235e-24
3.70284e-20
6.31705e-16
9.806e-12
6.82535e-07
1.84996e-24
3.69852e-20
6.31003e-16
9.79551e-12
6.82143e-07
1.84957e-24
3.69781e-20
6.30884e-16
9.79367e-12
6.8207e-07
1.84894e-24
3.69665e-20
6.30694e-16
9.79079e-12
6.81957e-07
1.84894e-24
3.69665e-20
6.30694e-16
9.79079e-12
6.81957e-07
1.84957e-24
3.69781e-20
6.30884e-16
9.79367e-12
6.8207e-07
1.84996e-24
3.69852e-20
6.31003e-16
9.79551e-12
6.82143e-07
1.85235e-24
3.70284e-20
6.31705e-16
9.806e-12
6.82535e-07
1.85334e-24
3.70468e-20
6.32008e-16
9.8106e-12
6.82709e-07
1.85844e-24
3.71388e-20
6.33499e-16
9.83278e-12
6.83521e-07
1.86015e-24
3.71702e-20
6.34021e-16
9.84076e-12
6.83817e-07
1.85307e-24
3.7056e-20
6.32504e-16
9.82738e-12
6.8439e-07
1.84998e-24
3.70068e-20
6.3186e-16
9.82147e-12
6.84531e-07
1.59919e-24
3.27533e-20
5.68933e-16
9.04225e-12
6.74144e-07
1.59915e-24
3.27449e-20
5.69521e-16
9.49283e-12
8.80808e-07
1.84993e-24
3.69972e-20
6.32414e-16
1.02688e-11
8.90256e-07
1.85303e-24
3.70464e-20
6.33058e-16
1.02744e-11
8.9003e-07
1.86011e-24
3.71606e-20
6.34571e-16
1.02861e-11
8.89044e-07
1.85841e-24
3.71293e-20
6.34049e-16
1.02779e-11
8.88679e-07
1.85331e-24
3.70373e-20
6.32556e-16
1.02548e-11
8.87648e-07
1.85231e-24
3.7019e-20
6.32253e-16
1.025e-11
8.87434e-07
1.84992e-24
3.69758e-20
6.3155e-16
1.02391e-11
8.8694e-07
1.84954e-24
3.69686e-20
6.31431e-16
1.02372e-11
8.86849e-07
1.8489e-24
3.6957e-20
6.31241e-16
1.02342e-11
8.86706e-07
1.8489e-24
3.6957e-20
6.31241e-16
1.02342e-11
8.86706e-07
1.84954e-24
3.69686e-20
6.31431e-16
1.02372e-11
8.86849e-07
1.84992e-24
3.69758e-20
6.3155e-16
1.02391e-11
8.8694e-07
1.85231e-24
3.7019e-20
6.32253e-16
1.025e-11
8.87434e-07
1.85331e-24
3.70373e-20
6.32556e-16
1.02548e-11
8.87648e-07
1.85841e-24
3.71293e-20
6.34049e-16
1.02779e-11
8.88679e-07
1.86011e-24
3.71606e-20
6.34571e-16
1.02861e-11
8.89044e-07
1.85303e-24
3.70464e-20
6.33058e-16
1.02744e-11
8.9003e-07
1.84993e-24
3.69972e-20
6.32414e-16
1.02688e-11
8.90256e-07
1.59915e-24
3.27449e-20
5.69521e-16
9.49283e-12
8.80808e-07
1.59911e-24
3.27362e-20
5.70454e-16
1.00828e-11
1.12082e-06
1.84988e-24
3.6987e-20
6.33303e-16
1.08533e-11
1.12851e-06
1.85299e-24
3.70363e-20
6.33948e-16
1.08584e-11
1.12817e-06
1.86006e-24
3.71505e-20
6.35454e-16
1.0868e-11
1.12662e-06
1.85836e-24
3.71192e-20
6.34931e-16
1.08593e-11
1.12617e-06
1.85326e-24
3.70272e-20
6.33437e-16
1.08351e-11
1.12486e-06
1.85226e-24
3.70089e-20
6.33133e-16
1.08301e-11
1.12459e-06
1.84988e-24
3.69657e-20
6.32429e-16
1.08186e-11
1.12397e-06
1.84949e-24
3.69586e-20
6.3231e-16
1.08166e-11
1.12386e-06
1.84886e-24
3.6947e-20
6.32119e-16
1.08134e-11
1.12368e-06
1.84886e-24
3.6947e-20
6.32119e-16
1.08134e-11
1.12368e-06
1.84949e-24
3.69586e-20
6.3231e-16
1.08166e-11
1.12386e-06
1.84988e-24
3.69657e-20
6.32429e-16
1.08186e-11
1.12397e-06
1.85226e-24
3.70089e-20
6.33133e-16
1.08301e-11
1.12459e-06
1.85326e-24
3.70272e-20
6.33437e-16
1.08351e-11
1.12486e-06
1.85836e-24
3.71192e-20
6.34931e-16
1.08593e-11
1.12617e-06
1.86006e-24
3.71505e-20
6.35454e-16
1.0868e-11
1.12662e-06
1.85299e-24
3.70363e-20
6.33948e-16
1.08584e-11
1.12817e-06
1.84988e-24
3.6987e-20
6.33303e-16
1.08533e-11
1.12851e-06
1.59911e-24
3.27362e-20
5.70454e-16
1.00828e-11
1.12082e-06
1.59907e-24
3.27273e-20
5.71733e-16
1.06708e-11
1.11795e-06
1.84982e-24
3.69764e-20
6.34527e-16
1.14357e-11
1.12566e-06
1.85294e-24
3.70259e-20
6.35172e-16
1.14404e-11
1.12533e-06
1.86001e-24
3.71401e-20
6.3667e-16
1.14477e-11
1.1238e-06
1.85831e-24
3.71087e-20
6.36146e-16
1.14387e-11
1.12335e-06
1.85321e-24
3.70168e-20
6.34648e-16
1.14133e-11
1.12206e-06
1.85221e-24
3.69985e-20
6.34343e-16
1.14081e-11
1.1218e-06
1.84983e-24
3.69554e-20
6.33638e-16
1.13961e-11
1.12118e-06
1.84944e-24
3.69483e-20
6.33518e-16
1.1394e-11
1.12107e-06
1.84881e-24
3.69367e-20
6.33327e-16
1.13907e-11
1.12089e-06
1.84881e-24
3.69367e-20
6.33327e-16
1.13907e-11
1.12089e-06
1.84944e-24
3.69483e-20
6.33518e-16
1.1394e-11
1.12107e-06
1.84983e-24
3.69554e-20
6.33638e-16
1.13961e-11
1.12118e-06
1.85221e-24
3.69985e-20
6.34343e-16
1.14081e-11
1.1218e-06
1.85321e-24
3.70168e-20
6.34648e-16
1.14133e-11
1.12206e-06
1.85831e-24
3.71087e-20
6.36146e-16
1.14387e-11
1.12335e-06
1.86001e-24
3.71401e-20
6.3667e-16
1.14477e-11
1.1238e-06
1.85294e-24
3.70259e-20
6.35172e-16
1.14404e-11
1.12533e-06
1.84982e-24
3.69764e-20
6.34527e-16
1.14357e-11
1.12566e-06
1.59907e-24
3.27273e-20
5.71733e-16
1.06708e-11
1.11795e-06
1.59902e-24
3.27184e-20
5.73356e-16
1.12568e-11
1.11517e-06
1.84976e-24
3.69658e-20
6.36085e-16
1.20161e-11
1.1229e-06
1.85288e-24
3.70154e-20
6.3673e-16
1.20204e-11
1.12257e-06
1.85996e-24
3.71296e-20
6.38218e-16
1.20255e-11
1.12106e-06
1.85826e-24
3.70982e-20
6.37692e-16
1.20161e-11
1.12062e-06
1.85316e-24
3.70064e-20
6.3619e-16
1.19895e-11
1.11934e-06
1.85216e-24
3.69881e-20
6.35884e-16
1.19841e-11
1.11908e-06
1.84977e-24
3.69449e-20
6.35177e-16
1.19716e-11
1.11847e-06
1.84939e-24
3.69378e-20
6.35057e-16
1.19694e-11
1.11836e-06
1.84875e-24
3.69262e-20
6.34865e-16
1.19659e-11
1.11818e-06
1.84875e-24
3.69262e-20
6.34865e-16
1.19659e-11
1.11818e-06
1.84939e-24
3.69378e-20
6.35057e-16
1.19694e-11
1.11836e-06
1.84977e-24
3.69449e-20
6.35177e-16
1.19716e-11
1.11847e-06
1.85216e-24
3.69881e-20
6.35884e-16
1.19841e-11
1.11908e-06
1.85316e-24
3.70064e-20
6.3619e-16
1.19895e-11
1.11934e-06
1.85826e-24
3.70982e-20
6.37692e-16
1.20161e-11
1.12062e-06
1.85996e-24
3.71296e-20
6.38218e-16
1.20255e-11
1.12106e-06
1.85288e-24
3.70154e-20
6.3673e-16
1.20204e-11
1.12257e-06
1.84976e-24
3.69658e-20
6.36085e-16
1.20161e-11
1.1229e-06
1.59902e-24
3.27184e-20
5.73356e-16
1.12568e-11
1.11517e-06
1.59896e-24
3.27099e-20
5.75322e-16
1.18406e-11
1.11247e-06
1.84968e-24
3.69553e-20
6.37977e-16
1.25943e-11
1.12021e-06
1.85282e-24
3.70051e-20
6.38622e-16
1.25982e-11
1.11989e-06
1.8599e-24
3.71192e-20
6.40096e-16
1.26011e-11
1.11841e-06
1.85819e-24
3.70879e-20
6.39569e-16
1.25914e-11
1.11797e-06
1.85309e-24
3.69961e-20
6.38061e-16
1.25637e-11
1.1167e-06
1.8521e-24
3.69778e-20
6.37755e-16
1.2558e-11
1.11645e-06
1.84971e-24
3.69347e-20
6.37045e-16
1.25449e-11
1.11584e-06
1.84933e-24
3.69276e-20
6.36925e-16
1.25426e-11
1.11573e-06
1.84869e-24
3.6916e-20
6.36732e-16
1.2539e-11
1.11556e-06
1.84869e-24
3.6916e-20
6.36732e-16
1.2539e-11
1.11556e-06
1.84933e-24
3.69276e-20
6.36925e-16
1.25426e-11
1.11573e-06
1.84971e-24
3.69347e-20
6.37045e-16
1.25449e-11
1.11584e-06
1.8521e-24
3.69778e-20
6.37755e-16
1.2558e-11
1.11645e-06
1.85309e-24
3.69961e-20
6.38061e-16
1.25637e-11
1.1167e-06
1.85819e-24
3.70879e-20
6.39569e-16
1.25914e-11
1.11797e-06
1.8599e-24
3.71192e-20
6.40096e-16
1.26011e-11
1.11841e-06
1.85282e-24
3.70051e-20
6.38622e-16
1.25982e-11
1.11989e-06
1.84968e-24
3.69553e-20
6.37977e-16
1.25943e-11
1.12021e-06
1.59896e-24
3.27099e-20
5.75322e-16
1.18406e-11
1.11247e-06
1.59891e-24
3.2702e-20
5.77632e-16
1.24223e-11
1.10984e-06
1.84961e-24
3.69453e-20
6.40202e-16
1.31703e-11
1.1176e-06
1.85275e-24
3.69952e-20
6.40846e-16
1.31738e-11
1.11729e-06
1.85983e-24
3.71092e-20
6.42306e-16
1.31746e-11
1.11582e-06
1.85813e-24
3.7078e-20
6.41776e-16
1.31645e-11
1.11539e-06
1.85303e-24
3.69862e-20
6.40262e-16
1.31356e-11
1.11413e-06
1.85203e-24
3.69679e-20
6.39955e-16
1.31298e-11
1.11388e-06
1.84964e-24
3.69248e-20
6.39241e-16
1.31161e-11
1.11328e-06
1.84926e-24
3.69177e-20
6.39121e-16
1.31138e-11
1.11317e-06
1.84862e-24
3.69061e-20
6.38927e-16
1.311e-11
1.113e-06
1.84862e-24
3.69061e-20
6.38927e-16
1.311e-11
1.113e-06
1.84926e-24
3.69177e-20
6.39121e-16
1.31138e-11
1.11317e-06
1.84964e-24
3.69248e-20
6.39241e-16
1.31161e-11
1.11328e-06
1.85203e-24
3.69679e-20
6.39955e-16
1.31298e-11
1.11388e-06
1.85303e-24
3.69862e-20
6.40262e-16
1.31356e-11
1.11413e-06
1.85813e-24
3.7078e-20
6.41776e-16
1.31645e-11
1.11539e-06
1.85983e-24
3.71092e-20
6.42306e-16
1.31746e-11
1.11582e-06
1.85275e-24
3.69951e-20
6.40846e-16
1.31738e-11
1.11729e-06
1.84961e-24
3.69453e-20
6.40202e-16
1.31703e-11
1.1176e-06
1.59891e-24
3.2702e-20
5.77632e-16
1.24223e-11
1.10984e-06
1.59884e-24
3.26949e-20
5.80282e-16
1.30017e-11
1.10728e-06
1.84952e-24
3.69358e-20
6.42759e-16
1.3744e-11
1.11506e-06
1.85268e-24
3.69859e-20
6.43402e-16
1.37471e-11
1.11474e-06
1.85976e-24
3.70999e-20
6.44844e-16
1.37457e-11
1.1133e-06
1.85805e-24
3.70687e-20
6.44313e-16
1.37353e-11
1.11287e-06
1.85296e-24
3.69769e-20
6.42791e-16
1.37053e-11
1.11163e-06
1.85196e-24
3.69587e-20
6.42482e-16
1.36992e-11
1.11138e-06
1.84957e-24
3.69156e-20
6.41765e-16
1.36851e-11
1.11078e-06
1.84919e-24
3.69085e-20
6.41644e-16
1.36826e-11
1.11068e-06
1.84855e-24
3.68969e-20
6.41449e-16
1.36787e-11
1.1105e-06
1.84855e-24
3.68969e-20
6.41449e-16
1.36787e-11
1.1105e-06
1.84919e-24
3.69085e-20
6.41644e-16
1.36826e-11
1.11068e-06
1.84957e-24
3.69156e-20
6.41765e-16
1.36851e-11
1.11078e-06
1.85196e-24
3.69587e-20
6.42482e-16
1.36992e-11
1.11138e-06
1.85296e-24
3.69769e-20
6.42791e-16
1.37053e-11
1.11163e-06
1.85805e-24
3.70687e-20
6.44313e-16
1.37353e-11
1.11287e-06
1.85976e-24
3.70999e-20
6.44844e-16
1.37457e-11
1.1133e-06
1.85268e-24
3.69859e-20
6.43402e-16
1.37471e-11
1.11474e-06
1.84952e-24
3.69358e-20
6.42759e-16
1.3744e-11
1.11506e-06
1.59884e-24
3.26949e-20
5.80282e-16
1.30017e-11
1.10728e-06
1.59878e-24
3.26889e-20
5.83274e-16
1.35787e-11
1.10479e-06
1.84943e-24
3.69273e-20
6.45647e-16
1.43153e-11
1.11258e-06
1.8526e-24
3.69775e-20
6.46289e-16
1.43179e-11
1.11227e-06
1.85968e-24
3.70915e-20
6.47711e-16
1.43145e-11
1.11085e-06
1.85798e-24
3.70602e-20
6.47177e-16
1.43037e-11
1.11042e-06
1.85288e-24
3.69686e-20
6.45646e-16
1.42726e-11
1.10919e-06
1.85188e-24
3.69503e-20
6.45336e-16
1.42664e-11
1.10894e-06
1.8495e-24
3.69072e-20
6.44615e-16
1.42517e-11
1.10835e-06
1.84911e-24
3.69001e-20
6.44493e-16
1.42491e-11
1.10824e-06
1.84848e-24
3.68886e-20
6.44297e-16
1.4245e-11
1.10807e-06
1.84848e-24
3.68886e-20
6.44297e-16
1.4245e-11
1.10807e-06
1.84911e-24
3.69001e-20
6.44493e-16
1.42491e-11
1.10824e-06
1.8495e-24
3.69072e-20
6.44615e-16
1.42517e-11
1.10835e-06
1.85188e-24
3.69503e-20
6.45336e-16
1.42664e-11
1.10894e-06
1.85288e-24
3.69686e-20
6.45646e-16
1.42726e-11
1.10919e-06
1.85798e-24
3.70602e-20
6.47177e-16
1.43037e-11
1.11042e-06
1.85968e-24
3.70915e-20
6.47711e-16
1.43145e-11
1.11085e-06
1.8526e-24
3.69775e-20
6.46289e-16
1.43179e-11
1.11227e-06
1.84943e-24
3.69273e-20
6.45647e-16
1.43152e-11
1.11258e-06
1.59878e-24
3.26889e-20
5.83274e-16
1.35787e-11
1.10479e-06
1.59871e-24
3.26842e-20
5.86604e-16
1.41533e-11
1.10236e-06
1.84934e-24
3.69199e-20
6.48864e-16
1.4884e-11
1.11015e-06
1.85252e-24
3.69703e-20
6.49504e-16
1.48863e-11
1.10985e-06
1.8596e-24
3.70842e-20
6.50905e-16
1.48808e-11
1.10845e-06
1.8579e-24
3.70529e-20
6.50368e-16
1.48697e-11
1.10802e-06
1.8528e-24
3.69613e-20
6.48828e-16
1.48375e-11
1.1068e-06
1.8518e-24
3.6943e-20
6.48516e-16
1.4831e-11
1.10655e-06
1.84942e-24
3.69e-20
6.47791e-16
1.48158e-11
1.10597e-06
1.84903e-24
3.68929e-20
6.47668e-16
1.48132e-11
1.10587e-06
1.8484e-24
3.68813e-20
6.47471e-16
1.48089e-11
1.1057e-06
1.8484e-24
3.68813e-20
6.47471e-16
1.48089e-11
1.1057e-06
1.84903e-24
3.68929e-20
6.47668e-16
1.48132e-11
1.10587e-06
1.84942e-24
3.69e-20
6.47791e-16
1.48158e-11
1.10597e-06
1.8518e-24
3.6943e-20
6.48516e-16
1.4831e-11
1.10655e-06
1.8528e-24
3.69613e-20
6.48828e-16
1.48375e-11
1.1068e-06
1.8579e-24
3.70529e-20
6.50368e-16
1.48697e-11
1.10802e-06
1.8596e-24
3.70842e-20
6.50905e-16
1.48808e-11
1.10845e-06
1.85252e-24
3.69703e-20
6.49504e-16
1.48863e-11
1.10985e-06
1.84934e-24
3.69199e-20
6.48864e-16
1.4884e-11
1.11015e-06
1.59871e-24
3.26842e-20
5.86604e-16
1.41533e-11
1.10236e-06
1.59864e-24
3.2681e-20
5.90272e-16
1.47253e-11
1.09998e-06
1.84924e-24
3.69139e-20
6.52409e-16
1.54502e-11
1.10778e-06
1.85244e-24
3.69644e-20
6.53048e-16
1.54521e-11
1.10748e-06
1.85952e-24
3.70782e-20
6.54424e-16
1.54446e-11
1.1061e-06
1.85782e-24
3.7047e-20
6.53884e-16
1.54331e-11
1.10568e-06
1.85272e-24
3.69554e-20
6.52334e-16
1.53998e-11
1.10447e-06
1.85172e-24
3.69371e-20
6.5202e-16
1.53932e-11
1.10422e-06
1.84934e-24
3.68941e-20
6.51289e-16
1.53775e-11
1.10364e-06
1.84895e-24
3.6887e-20
6.51166e-16
1.53747e-11
1.10354e-06
1.84831e-24
3.68754e-20
6.50967e-16
1.53703e-11
1.10337e-06
1.84831e-24
3.68754e-20
6.50967e-16
1.53703e-11
1.10337e-06
1.84895e-24
3.6887e-20
6.51166e-16
1.53747e-11
1.10354e-06
1.84934e-24
3.68941e-20
6.51289e-16
1.53775e-11
1.10364e-06
1.85172e-24
3.69371e-20
6.5202e-16
1.53932e-11
1.10422e-06
1.85272e-24
3.69554e-20
6.52334e-16
1.53998e-11
1.10447e-06
1.85782e-24
3.7047e-20
6.53884e-16
1.54331e-11
1.10568e-06
1.85952e-24
3.70782e-20
6.54424e-16
1.54446e-11
1.1061e-06
1.85244e-24
3.69644e-20
6.53048e-16
1.54521e-11
1.10748e-06
1.84924e-24
3.69139e-20
6.52408e-16
1.54502e-11
1.10778e-06
1.59864e-24
3.2681e-20
5.90272e-16
1.47253e-11
1.09998e-06
1.59858e-24
3.26796e-20
5.94276e-16
1.52947e-11
1.09764e-06
1.84915e-24
3.69094e-20
6.5628e-16
1.60137e-11
1.10545e-06
1.85236e-24
3.69602e-20
6.56917e-16
1.60152e-11
1.10515e-06
1.85943e-24
3.70738e-20
6.58268e-16
1.60057e-11
1.10379e-06
1.85773e-24
3.70426e-20
6.57724e-16
1.59939e-11
1.10337e-06
1.85263e-24
3.6951e-20
6.56162e-16
1.59595e-11
1.10217e-06
1.85164e-24
3.69327e-20
6.55846e-16
1.59527e-11
1.10193e-06
1.84925e-24
3.68897e-20
6.5511e-16
1.59364e-11
1.10136e-06
1.84887e-24
3.68826e-20
6.54986e-16
1.59336e-11
1.10125e-06
1.84823e-24
3.68711e-20
6.54786e-16
1.59291e-11
1.10109e-06
1.84823e-24
3.68711e-20
6.54786e-16
1.59291e-11
1.10109e-06
1.84887e-24
3.68826e-20
6.54986e-16
1.59336e-11
1.10125e-06
1.84925e-24
3.68897e-20
6.5511e-16
1.59364e-11
1.10136e-06
1.85164e-24
3.69327e-20
6.55846e-16
1.59527e-11
1.10193e-06
1.85263e-24
3.6951e-20
6.56162e-16
1.59595e-11
1.10217e-06
1.85773e-24
3.70426e-20
6.57724e-16
1.59939e-11
1.10337e-06
1.85943e-24
3.70738e-20
6.58268e-16
1.60057e-11
1.10379e-06
1.85236e-24
3.69602e-20
6.56917e-16
1.60152e-11
1.10515e-06
1.84915e-24
3.69094e-20
6.5628e-16
1.60137e-11
1.10545e-06
1.59858e-24
3.26796e-20
5.94276e-16
1.52947e-11
1.09764e-06
1.59851e-24
3.26803e-20
5.98615e-16
1.58612e-11
1.09531e-06
1.84905e-24
3.69068e-20
6.60476e-16
1.65743e-11
1.10312e-06
1.85227e-24
3.69577e-20
6.61111e-16
1.65755e-11
1.10283e-06
1.85935e-24
3.70712e-20
6.62434e-16
1.6564e-11
1.10148e-06
1.85765e-24
3.704e-20
6.61886e-16
1.65519e-11
1.10107e-06
1.85255e-24
3.69484e-20
6.60312e-16
1.65164e-11
1.09988e-06
1.85155e-24
3.69302e-20
6.59994e-16
1.65094e-11
1.09964e-06
1.84917e-24
3.68872e-20
6.59252e-16
1.64927e-11
1.09907e-06
1.84878e-24
3.68801e-20
6.59126e-16
1.64898e-11
1.09897e-06
1.84815e-24
3.68685e-20
6.58924e-16
1.64851e-11
1.09881e-06
1.84815e-24
3.68685e-20
6.58924e-16
1.64851e-11
1.09881e-06
1.84878e-24
3.68801e-20
6.59126e-16
1.64898e-11
1.09897e-06
1.84917e-24
3.68872e-20
6.59252e-16
1.64927e-11
1.09907e-06
1.85155e-24
3.69302e-20
6.59994e-16
1.65094e-11
1.09964e-06
1.85255e-24
3.69484e-20
6.60312e-16
1.65164e-11
1.09988e-06
1.85765e-24
3.704e-20
6.61886e-16
1.65519e-11
1.10107e-06
1.85935e-24
3.70712e-20
6.62434e-16
1.6564e-11
1.10148e-06
1.85227e-24
3.69577e-20
6.61111e-16
1.65755e-11
1.10283e-06
1.84905e-24
3.69067e-20
6.60476e-16
1.65743e-11
1.10312e-06
1.59851e-24
3.26803e-20
5.98615e-16
1.58612e-11
1.09531e-06
0.00215812
0.000646392
3.54779e-05
4.26247e-07
8.67527e-10
1.57306e-12
1.29116e-12
1.29969e-12
1.30156e-12
1.30192e-12
1.30204e-12
1.30278e-12
1.30638e-12
1.31064e-12
1.34513e-12
1.37399e-12
1.67367e-12
1.83337e-12
5.84921e-12
6.82544e-12
0.0023051
0.000693128
3.87508e-05
4.78112e-07
1.0104e-09
1.64797e-12
1.29088e-12
1.29961e-12
1.30153e-12
1.30189e-12
1.302e-12
1.30259e-12
1.30628e-12
1.31062e-12
1.34572e-12
1.37493e-12
1.67867e-12
1.83945e-12
5.90279e-12
6.89097e-12
0.00230542
0.000692966
3.8709e-05
4.77343e-07
1.00812e-09
1.64685e-12
1.29088e-12
1.29961e-12
1.30153e-12
1.30189e-12
1.302e-12
1.3026e-12
1.3063e-12
1.31063e-12
1.34575e-12
1.37497e-12
1.67877e-12
1.83955e-12
5.90333e-12
6.89151e-12
0.0023069
0.000691742
3.84327e-05
4.72099e-07
9.92501e-10
1.63901e-12
1.29087e-12
1.29961e-12
1.30153e-12
1.3019e-12
1.30201e-12
1.30266e-12
1.30636e-12
1.3107e-12
1.34585e-12
1.3751e-12
1.6791e-12
1.83991e-12
5.90504e-12
6.89303e-12
0.0023049
0.000690973
3.83641e-05
4.70981e-07
9.8926e-10
1.63732e-12
1.29087e-12
1.29961e-12
1.30153e-12
1.3019e-12
1.30201e-12
1.30266e-12
1.30636e-12
1.3107e-12
1.34586e-12
1.37511e-12
1.67912e-12
1.83992e-12
5.90509e-12
6.89306e-12
0.00229985
0.000688681
3.81418e-05
4.673e-07
9.787e-10
1.63185e-12
1.29087e-12
1.29962e-12
1.30153e-12
1.3019e-12
1.30201e-12
1.30266e-12
1.30636e-12
1.31071e-12
1.34587e-12
1.37511e-12
1.67913e-12
1.83993e-12
5.90515e-12
6.8931e-12
0.0022987
0.000688244
3.81039e-05
4.66693e-07
9.76948e-10
1.63093e-12
1.29087e-12
1.29962e-12
1.30153e-12
1.3019e-12
1.30201e-12
1.30266e-12
1.30636e-12
1.31071e-12
1.34587e-12
1.37511e-12
1.67913e-12
1.83993e-12
5.90515e-12
6.8931e-12
0.00229627
0.000687173
3.80028e-05
4.65041e-07
9.72235e-10
1.62849e-12
1.29087e-12
1.29962e-12
1.30153e-12
1.3019e-12
1.30201e-12
1.30266e-12
1.30636e-12
1.31071e-12
1.34587e-12
1.37511e-12
1.67913e-12
1.83994e-12
5.90516e-12
6.8931e-12
0.0022958
0.000686994
3.79872e-05
4.64793e-07
9.71518e-10
1.62812e-12
1.29087e-12
1.29962e-12
1.30153e-12
1.3019e-12
1.30201e-12
1.30266e-12
1.30636e-12
1.31071e-12
1.34587e-12
1.37511e-12
1.67913e-12
1.83994e-12
5.90516e-12
6.8931e-12
0.00229511
0.000686694
3.79587e-05
4.64329e-07
9.70197e-10
1.62744e-12
1.29087e-12
1.29962e-12
1.30153e-12
1.3019e-12
1.30201e-12
1.30266e-12
1.30636e-12
1.31071e-12
1.34587e-12
1.37511e-12
1.67913e-12
1.83994e-12
5.90516e-12
6.8931e-12
0.00229511
0.000686694
3.79587e-05
4.64329e-07
9.70197e-10
1.62744e-12
1.29087e-12
1.29962e-12
1.30153e-12
1.3019e-12
1.30201e-12
1.30266e-12
1.30636e-12
1.31071e-12
1.34587e-12
1.37511e-12
1.67913e-12
1.83994e-12
5.90516e-12
6.8931e-12
0.0022958
0.000686994
3.79872e-05
4.64793e-07
9.71518e-10
1.62812e-12
1.29087e-12
1.29962e-12
1.30153e-12
1.3019e-12
1.30201e-12
1.30266e-12
1.30636e-12
1.31071e-12
1.34587e-12
1.37511e-12
1.67913e-12
1.83994e-12
5.90516e-12
6.8931e-12
0.00229627
0.000687173
3.80028e-05
4.65041e-07
9.72235e-10
1.62849e-12
1.29087e-12
1.29962e-12
1.30153e-12
1.3019e-12
1.30201e-12
1.30266e-12
1.30636e-12
1.31071e-12
1.34587e-12
1.37511e-12
1.67913e-12
1.83994e-12
5.90516e-12
6.8931e-12
0.0022987
0.000688244
3.81039e-05
4.66693e-07
9.76948e-10
1.63093e-12
1.29087e-12
1.29962e-12
1.30153e-12
1.3019e-12
1.30201e-12
1.30266e-12
1.30636e-12
1.31071e-12
1.34587e-12
1.37511e-12
1.67913e-12
1.83993e-12
5.90515e-12
6.8931e-12
0.00229985
0.000688681
3.81418e-05
4.673e-07
9.787e-10
1.63185e-12
1.29087e-12
1.29962e-12
1.30153e-12
1.3019e-12
1.30201e-12
1.30266e-12
1.30636e-12
1.31071e-12
1.34587e-12
1.37511e-12
1.67913e-12
1.83993e-12
5.90515e-12
6.8931e-12
0.0023049
0.000690973
3.83641e-05
4.70981e-07
9.8926e-10
1.63732e-12
1.29087e-12
1.29961e-12
1.30153e-12
1.3019e-12
1.30201e-12
1.30266e-12
1.30636e-12
1.3107e-12
1.34586e-12
1.37511e-12
1.67912e-12
1.83992e-12
5.90509e-12
6.89306e-12
0.0023069
0.000691742
3.84327e-05
4.72099e-07
9.92501e-10
1.63901e-12
1.29087e-12
1.29961e-12
1.30153e-12
1.3019e-12
1.30201e-12
1.30266e-12
1.30636e-12
1.3107e-12
1.34585e-12
1.3751e-12
1.6791e-12
1.83991e-12
5.90504e-12
6.89303e-12
0.00230542
0.000692966
3.8709e-05
4.77343e-07
1.00812e-09
1.64685e-12
1.29088e-12
1.29961e-12
1.30153e-12
1.30189e-12
1.302e-12
1.3026e-12
1.3063e-12
1.31063e-12
1.34575e-12
1.37497e-12
1.67877e-12
1.83955e-12
5.90333e-12
6.89151e-12
0.00230511
0.000693128
3.87508e-05
4.78112e-07
1.0104e-09
1.64797e-12
1.29088e-12
1.29961e-12
1.30153e-12
1.30189e-12
1.302e-12
1.30259e-12
1.30628e-12
1.31062e-12
1.34572e-12
1.37493e-12
1.67867e-12
1.83945e-12
5.90279e-12
6.89097e-12
0.00215812
0.000646392
3.54779e-05
4.26247e-07
8.67527e-10
1.57306e-12
1.29116e-12
1.29969e-12
1.30156e-12
1.30192e-12
1.30204e-12
1.30278e-12
1.30638e-12
1.31064e-12
1.34513e-12
1.37399e-12
1.67367e-12
1.83337e-12
5.84921e-12
6.82544e-12
0.0229449
0.00889125
0.000711613
1.09931e-05
2.77408e-08
5.51144e-11
4.37226e-11
4.40428e-11
4.41133e-11
4.41268e-11
4.41314e-11
4.41569e-11
4.42808e-11
4.44262e-11
4.56019e-11
4.65795e-11
5.67283e-11
6.20838e-11
1.96452e-10
2.28425e-10
0.0240742
0.00939299
0.000766457
1.21495e-05
3.17173e-08
5.76436e-11
4.37121e-11
4.40399e-11
4.41121e-11
4.41259e-11
4.413e-11
4.41507e-11
4.42775e-11
4.44255e-11
4.56222e-11
4.66119e-11
5.68992e-11
6.22908e-11
1.98249e-10
2.30614e-10
0.0240742
0.00939015
0.000765538
1.21279e-05
3.16402e-08
5.75984e-11
4.37119e-11
4.40398e-11
4.41121e-11
4.4126e-11
4.413e-11
4.41511e-11
4.4278e-11
4.4426e-11
4.56232e-11
4.66131e-11
5.69025e-11
6.22942e-11
1.98267e-10
2.30632e-10
0.024086
0.00937521
0.000760011
1.1991e-05
3.11397e-08
5.72963e-11
4.37116e-11
4.40399e-11
4.41122e-11