/*--------------------------------*- C++ -*----------------------------------*\
  =========                 |
  \\      /  F ield         | OpenFOAM: The Open Source CFD Toolbox
   \\    /   O peration     | Website:  https://openfoam.org
    \\  /    A nd           | Version:  8
     \\/     M anipulation  |
\*---------------------------------------------------------------------------*/
FoamFile
{
    version     2.0;
    format      ascii;
    class       volScalarField;
    location    "4.8";
    object      p;
}
// * * * * * * * * * * * * * * * * * * * * * * * * * * * * * * * * * * * * * //

dimensions      [0 2 -2 0 0 0 0];

internalField   nonuniform List<scalar> 
180000
(
0.000904755
0.000843668
0.000882105
0.000751444
0.000820659
0.000890166
0.000829313
0.000867465
0.00073814
0.000806204
0.000889298
0.000828484
0.000866597
0.000737416
0.000805387
0.000884929
0.000824285
0.000862212
0.000733713
0.000801273
0.000884306
0.000823692
0.000861585
0.000733193
0.000800685
0.000882265
0.000821743
0.000859531
0.000731483
0.000798763
0.000881907
0.000821403
0.000859169
0.000731184
0.000798423
0.000880962
0.000820502
0.000858217
0.000730393
0.000797531
0.000880807
0.000820354
0.00085806
0.000730263
0.000797383
0.000880531
0.000820091
0.000857781
0.000730032
0.000797122
0.000880531
0.000820091
0.000857781
0.000730032
0.000797122
0.000880807
0.000820354
0.00085806
0.000730263
0.000797383
0.000880962
0.000820502
0.000858217
0.000730393
0.000797531
0.000881907
0.000821403
0.000859169
0.000731184
0.000798423
0.000882265
0.000821743
0.000859531
0.000731483
0.000798763
0.000884306
0.000823692
0.000861585
0.000733193
0.000800685
0.000884929
0.000824285
0.000862212
0.000733713
0.000801273
0.000889298
0.000828484
0.000866597
0.000737416
0.000805387
0.000890166
0.000829313
0.000867465
0.00073814
0.000806204
0.000904755
0.000843668
0.000882105
0.000751444
0.000820659
0.000736613
0.000708566
0.000727152
0.000658326
0.000697481
0.000730309
0.000701461
0.000720483
0.000650551
0.000689986
0.000729926
0.000701043
0.000720079
0.00065012
0.000689554
0.000727953
0.000698881
0.000717995
0.000647882
0.000687339
0.000727671
0.000698576
0.000717697
0.000647569
0.000687023
0.000726741
0.000697566
0.000716713
0.00064653
0.000685981
0.000726578
0.00069739
0.00071654
0.000646348
0.000685797
0.000726146
0.000696921
0.000716081
0.000645866
0.000685311
0.000726075
0.000696844
0.000716005
0.000645787
0.000685231
0.000725948
0.000696707
0.000715871
0.000645647
0.000685089
0.000725948
0.000696707
0.000715871
0.000645647
0.000685089
0.000726075
0.000696844
0.000716005
0.000645787
0.000685231
0.000726146
0.000696921
0.000716081
0.000645866
0.000685311
0.000726578
0.00069739
0.00071654
0.000646348
0.000685797
0.000726741
0.000697566
0.000716713
0.00064653
0.000685981
0.000727671
0.000698576
0.000717697
0.000647569
0.000687023
0.000727953
0.000698881
0.000717995
0.000647882
0.000687339
0.000729926
0.000701043
0.000720079
0.00065012
0.000689554
0.000730309
0.000701461
0.000720483
0.000650551
0.000689986
0.000736613
0.000708566
0.000727152
0.000658326
0.000697481
0.000528963
0.000506609
0.00052187
0.000467946
0.000500953
0.000523879
0.00050116
0.000516604
0.000462286
0.000495273
0.000523569
0.000500838
0.000516284
0.00046197
0.000494943
0.000521948
0.000499144
0.000514606
0.000460297
0.000493222
0.000521719
0.000498907
0.000514368
0.000460065
0.000492978
0.000520957
0.000498117
0.000513577
0.000459289
0.000492169
0.000520825
0.00049798
0.000513439
0.000459154
0.000492028
0.00052047
0.000497614
0.000513071
0.000458794
0.000491651
0.000520413
0.000497554
0.000513011
0.000458736
0.000491589
0.000520309
0.000497447
0.000512903
0.000458631
0.000491479
0.000520309
0.000497447
0.000512903
0.000458631
0.000491479
0.000520413
0.000497554
0.000513011
0.000458736
0.000491589
0.00052047
0.000497614
0.000513071
0.000458794
0.000491651
0.000520825
0.00049798
0.000513439
0.000459154
0.000492028
0.000520957
0.000498117
0.000513577
0.000459289
0.000492169
0.000521719
0.000498907
0.000514368
0.000460065
0.000492978
0.000521948
0.000499144
0.000514606
0.000460297
0.000493222
0.000523569
0.000500838
0.000516284
0.00046197
0.000494943
0.000523879
0.00050116
0.000516604
0.000462286
0.000495273
0.000528963
0.000506609
0.00052187
0.000467946
0.000500953
0.000494748
0.000468525
0.000486522
0.000425689
0.000465104
0.000488661
0.000462361
0.000480356
0.00041973
0.00045881
0.000488289
0.000461995
0.00047998
0.000419395
0.000458442
0.000486344
0.000460068
0.000478008
0.000417611
0.000456513
0.000486071
0.0004598
0.00047773
0.000417365
0.000456241
0.000485159
0.000458903
0.000476804
0.000416539
0.000455337
0.000485002
0.000458748
0.000476642
0.000416397
0.000455179
0.000484579
0.000458333
0.000476212
0.000416014
0.000454758
0.00048451
0.000458266
0.000476142
0.000415952
0.000454689
0.000484387
0.000458144
0.000476016
0.00041584
0.000454566
0.000484387
0.000458144
0.000476016
0.00041584
0.000454566
0.00048451
0.000458266
0.000476142
0.000415952
0.000454689
0.000484579
0.000458333
0.000476212
0.000416014
0.000454758
0.000485002
0.000458748
0.000476642
0.000416397
0.000455179
0.000485159
0.000458903
0.000476804
0.000416539
0.000455337
0.000486071
0.0004598
0.00047773
0.000417365
0.000456241
0.000486344
0.000460068
0.000478008
0.000417611
0.000456513
0.000488289
0.000461995
0.00047998
0.000419395
0.000458442
0.000488661
0.000462361
0.000480356
0.00041973
0.00045881
0.000494748
0.000468525
0.000486522
0.000425689
0.000465104
0.000517852
0.000490131
0.000509504
0.0004445
0.000489519
0.000511439
0.000483634
0.000503007
0.000438229
0.000482908
0.000511043
0.000483244
0.000502607
0.000437872
0.000482515
0.000508963
0.000481182
0.000500497
0.000435966
0.000480449
0.000508671
0.000480896
0.0005002
0.000435703
0.000480158
0.000507696
0.000479935
0.000499208
0.000434819
0.00047919
0.000507527
0.00047977
0.000499036
0.000434667
0.00047902
0.000507074
0.000479325
0.000498575
0.000434258
0.00047857
0.000507001
0.000479253
0.0004985
0.000434192
0.000478496
0.000506869
0.000479123
0.000498365
0.000434072
0.000478364
0.000506869
0.000479123
0.000498365
0.000434072
0.000478364
0.000507001
0.000479253
0.0004985
0.000434192
0.000478496
0.000507074
0.000479325
0.000498575
0.000434258
0.00047857
0.000507527
0.00047977
0.000499036
0.000434667
0.00047902
0.000507696
0.000479935
0.000499208
0.000434819
0.00047919
0.000508671
0.000480896
0.0005002
0.000435703
0.000480158
0.000508963
0.000481182
0.000500497
0.000435966
0.000480449
0.000511043
0.000483244
0.000502607
0.000437872
0.000482515
0.000511439
0.000483634
0.000503007
0.000438229
0.000482908
0.000517852
0.000490131
0.000509504
0.0004445
0.000489519
0.000530627
0.000503492
0.000522944
0.000458038
0.000506662
0.000524401
0.000497137
0.000516621
0.000451843
0.000500197
0.000524012
0.000496752
0.000516226
0.000451486
0.000499806
0.00052195
0.000494693
0.00051413
0.000449564
0.000497735
0.000521661
0.000494408
0.000513836
0.0004493
0.000497444
0.000520693
0.000493448
0.000512849
0.000448408
0.000496471
0.000520526
0.000493283
0.000512678
0.000448255
0.000496302
0.000520077
0.000492839
0.000512219
0.000447842
0.00049585
0.000520005
0.000492767
0.000512145
0.000447775
0.000495776
0.000519873
0.000492637
0.000512011
0.000447654
0.000495644
0.000519873
0.000492637
0.000512011
0.000447654
0.000495644
0.000520005
0.000492767
0.000512145
0.000447775
0.000495776
0.000520077
0.000492839
0.000512219
0.000447842
0.00049585
0.000520526
0.000493283
0.000512678
0.000448255
0.000496302
0.000520693
0.000493448
0.000512849
0.000448408
0.000496471
0.000521661
0.000494408
0.000513836
0.0004493
0.000497444
0.00052195
0.000494693
0.00051413
0.000449564
0.000497735
0.000524012
0.000496752
0.000516226
0.000451486
0.000499806
0.000524401
0.000497137
0.000516621
0.000451843
0.000500197
0.000530627
0.000503492
0.000522944
0.000458038
0.000506662
0.000530531
0.000504149
0.000523552
0.00045953
0.000511434
0.00052452
0.000498001
0.000517444
0.000453517
0.000505187
0.000524139
0.000497624
0.000517058
0.000453166
0.000504803
0.000522108
0.000495592
0.000514992
0.000451261
0.000502751
0.000521825
0.000495312
0.000514703
0.000451
0.000502463
0.00052087
0.000494363
0.000513729
0.000450115
0.000501498
0.000520706
0.000494201
0.000513561
0.000449963
0.000501331
0.000520262
0.000493761
0.000513108
0.000449553
0.000500882
0.000520191
0.000493691
0.000513035
0.000449487
0.000500809
0.000520061
0.000493562
0.000512903
0.000449368
0.000500677
0.000520061
0.000493562
0.000512903
0.000449368
0.000500677
0.000520191
0.000493691
0.000513035
0.000449487
0.000500809
0.000520262
0.000493761
0.000513108
0.000449553
0.000500882
0.000520706
0.000494201
0.000513561
0.000449963
0.000501331
0.00052087
0.000494363
0.000513729
0.000450115
0.000501498
0.000521825
0.000495312
0.000514703
0.000451
0.000502463
0.000522108
0.000495592
0.000514992
0.000451261
0.000502751
0.000524139
0.000497624
0.000517058
0.000453166
0.000504803
0.00052452
0.000498001
0.000517444
0.000453517
0.000505187
0.000530531
0.000504149
0.000523552
0.00045953
0.000511434
0.000527899
0.000501931
0.00052148
0.000457875
0.000513117
0.000522014
0.000495922
0.000515507
0.000452005
0.00050702
0.000521638
0.000495549
0.000515126
0.000451659
0.00050664
0.000519614
0.000493526
0.000513068
0.000449762
0.00050459
0.000519332
0.000493248
0.000512781
0.000449503
0.000504304
0.000518379
0.000492302
0.000511809
0.00044862
0.000503339
0.000518216
0.000492141
0.000511642
0.00044847
0.000503172
0.000517773
0.000491703
0.00051119
0.000448061
0.000502724
0.000517703
0.000491633
0.000511118
0.000447995
0.000502651
0.000517573
0.000491505
0.000510986
0.000447876
0.000502519
0.000517573
0.000491505
0.000510986
0.000447876
0.000502519
0.000517703
0.000491633
0.000511118
0.000447995
0.000502651
0.000517773
0.000491703
0.00051119
0.000448061
0.000502724
0.000518216
0.000492141
0.000511642
0.00044847
0.000503172
0.000518379
0.000492302
0.000511809
0.00044862
0.000503339
0.000519332
0.000493248
0.000512781
0.000449503
0.000504304
0.000519614
0.000493526
0.000513068
0.000449762
0.00050459
0.000521638
0.000495549
0.000515126
0.000451659
0.00050664
0.000522014
0.000495922
0.000515507
0.000452005
0.00050702
0.000527899
0.000501931
0.00052148
0.000457875
0.000513117
0.000526661
0.000500961
0.000520737
0.000457321
0.000515547
0.000520869
0.000495055
0.000514863
0.000451558
0.000509558
0.000520495
0.000494685
0.000514484
0.000451214
0.000509179
0.000518467
0.000492662
0.000512425
0.000449317
0.000507124
0.000518186
0.000492384
0.000512138
0.000449059
0.000506837
0.000517231
0.000491437
0.000511165
0.000448175
0.000505869
0.000517068
0.000491276
0.000510998
0.000448025
0.000505702
0.000516624
0.000490837
0.000510546
0.000447615
0.000505251
0.000516553
0.000490767
0.000510473
0.00044755
0.000505178
0.000516424
0.000490639
0.000510341
0.00044743
0.000505046
0.000516424
0.000490639
0.000510341
0.00044743
0.000505046
0.000516553
0.000490767
0.000510473
0.00044755
0.000505178
0.000516624
0.000490837
0.000510546
0.000447615
0.000505251
0.000517068
0.000491276
0.000510998
0.000448025
0.000505702
0.000517231
0.000491437
0.000511165
0.000448175
0.000505869
0.000518186
0.000492384
0.000512138
0.000449059
0.000506837
0.000518467
0.000492662
0.000512425
0.000449317
0.000507124
0.000520495
0.000494685
0.000514484
0.000451214
0.000509179
0.000520869
0.000495055
0.000514863
0.000451558
0.000509558
0.000526661
0.000500961
0.000520737
0.000457321
0.000515547
0.00052636
0.000500932
0.000520922
0.000457761
0.000518267
0.000520662
0.000495128
0.000515148
0.0004521
0.000512375
0.000520291
0.000494761
0.000514772
0.000451758
0.000511997
0.000518262
0.000492737
0.000512712
0.000449859
0.000509936
0.000517982
0.00049246
0.000512426
0.000449601
0.000509649
0.000517024
0.000491512
0.000511451
0.000448716
0.000508677
0.000516862
0.000491352
0.000511285
0.000448566
0.000508509
0.000516417
0.000490912
0.000510831
0.000448155
0.000508057
0.000516346
0.000490842
0.000510759
0.00044809
0.000507984
0.000516216
0.000490714
0.000510626
0.00044797
0.000507851
0.000516216
0.000490714
0.000510626
0.00044797
0.000507851
0.000516346
0.000490842
0.000510759
0.00044809
0.000507984
0.000516417
0.000490912
0.000510831
0.000448155
0.000508057
0.000516862
0.000491352
0.000511285
0.000448566
0.000508509
0.000517024
0.000491512
0.000511451
0.000448716
0.000508677
0.000517982
0.00049246
0.000512426
0.000449601
0.000509649
0.000518262
0.000492737
0.000512712
0.000449859
0.000509936
0.000520291
0.000494761
0.000514772
0.000451758
0.000511997
0.000520662
0.000495128
0.000515148
0.0004521
0.000512375
0.00052636
0.000500932
0.000520922
0.000457761
0.000518267
0.000526152
0.000501015
0.000521193
0.000458402
0.000520134
0.000520555
0.000495318
0.000515525
0.000452842
0.000514326
0.000520186
0.000494953
0.000515152
0.000452503
0.00051395
0.000518159
0.000492932
0.000513094
0.000450604
0.000511884
0.00051788
0.000492656
0.000512809
0.000450347
0.000511597
0.000516922
0.000491707
0.000511834
0.00044946
0.00051062
0.000516759
0.000491547
0.000511668
0.00044931
0.000510453
0.000516314
0.000491108
0.000511214
0.000448898
0.000509998
0.000516244
0.000491038
0.000511142
0.000448833
0.000509925
0.000516114
0.00049091
0.000511009
0.000448713
0.000509792
0.000516114
0.00049091
0.000511009
0.000448713
0.000509792
0.000516244
0.000491038
0.000511142
0.000448833
0.000509925
0.000516314
0.000491108
0.000511214
0.000448898
0.000509998
0.000516759
0.000491547
0.000511668
0.00044931
0.000510453
0.000516922
0.000491707
0.000511834
0.00044946
0.00051062
0.00051788
0.000492656
0.000512809
0.000450347
0.000511597
0.000518159
0.000492932
0.000513094
0.000450604
0.000511884
0.000520186
0.000494953
0.000515152
0.000452503
0.00051395
0.000520555
0.000495318
0.000515525
0.000452842
0.000514326
0.000526152
0.000501015
0.000521193
0.000458402
0.000520134
0.00052583
0.00050098
0.000521334
0.000458939
0.000518933
0.000520333
0.000495388
0.00051577
0.000453481
0.000513223
0.000519967
0.000495027
0.0005154
0.000453145
0.00051285
0.000517942
0.000493008
0.000513346
0.000451246
0.000510787
0.000517663
0.000492734
0.000513062
0.00045099
0.000510502
0.000516705
0.000491785
0.000512087
0.000450101
0.000509525
0.000516543
0.000491625
0.000511921
0.000449952
0.000509358
0.000516098
0.000491186
0.000511467
0.00044954
0.000508903
0.000516027
0.000491116
0.000511395
0.000449474
0.000508831
0.000515897
0.000490988
0.000511262
0.000449354
0.000508697
0.000515897
0.000490988
0.000511262
0.000449354
0.000508697
0.000516027
0.000491116
0.000511395
0.000449474
0.000508831
0.000516098
0.000491185
0.000511467
0.00044954
0.000508903
0.000516543
0.000491625
0.000511921
0.000449952
0.000509358
0.000516705
0.000491785
0.000512087
0.000450101
0.000509525
0.000517663
0.000492734
0.000513062
0.00045099
0.000510502
0.000517942
0.000493008
0.000513346
0.000451246
0.000510787
0.000519967
0.000495027
0.0005154
0.000453145
0.00051285
0.000520333
0.000495388
0.00051577
0.000453481
0.000513223
0.00052583
0.00050098
0.000521334
0.000458939
0.000518933
0.00052547
0.000500894
0.000521417
0.000459347
0.000516857
0.000520069
0.000495404
0.000515955
0.000453989
0.00051125
0.000519705
0.000495045
0.000515588
0.000453654
0.000510881
0.000517683
0.00049303
0.000513536
0.000451757
0.000508824
0.000517406
0.000492757
0.000513254
0.000451501
0.00050854
0.000516447
0.000491808
0.000512278
0.000450612
0.000507564
0.000516285
0.000491649
0.000512113
0.000450463
0.000507398
0.00051584
0.000491209
0.000511659
0.00045005
0.000506944
0.000515769
0.00049114
0.000511587
0.000449985
0.000506871
0.000515639
0.000491011
0.000511454
0.000449865
0.000506738
0.000515639
0.000491011
0.000511454
0.000449865
0.000506738
0.000515769
0.00049114
0.000511587
0.000449985
0.000506871
0.00051584
0.000491209
0.000511659
0.00045005
0.000506944
0.000516285
0.000491649
0.000512113
0.000450463
0.000507398
0.000516447
0.000491808
0.000512278
0.000450612
0.000507564
0.000517406
0.000492757
0.000513254
0.000451501
0.00050854
0.000517683
0.00049303
0.000513536
0.000451757
0.000508824
0.000519705
0.000495045
0.000515588
0.000453654
0.000510881
0.000520069
0.000495404
0.000515955
0.000453989
0.00051125
0.00052547
0.000500894
0.000521417
0.000459347
0.000516857
0.000525132
0.000500819
0.000521506
0.000459672
0.000515043
0.000519826
0.000495429
0.000516143
0.000454411
0.000509535
0.000519465
0.000495073
0.000515778
0.00045408
0.000509169
0.000517445
0.000493061
0.00051373
0.000452184
0.000507118
0.000517169
0.000492788
0.000513448
0.000451929
0.000506836
0.000516209
0.00049184
0.000512473
0.000451039
0.000505861
0.000516048
0.000491681
0.000512308
0.00045089
0.000505695
0.000515602
0.000491241
0.000511854
0.000450477
0.000505241
0.000515532
0.000491172
0.000511782
0.000450412
0.000505169
0.000515402
0.000491043
0.000511649
0.000450291
0.000505036
0.000515402
0.000491043
0.000511649
0.000450291
0.000505036
0.000515532
0.000491172
0.000511782
0.000450412
0.000505169
0.000515602
0.000491241
0.000511854
0.000450477
0.000505241
0.000516048
0.000491681
0.000512308
0.00045089
0.000505695
0.000516209
0.00049184
0.000512473
0.000451039
0.000505861
0.000517169
0.000492788
0.000513448
0.000451929
0.000506836
0.000517445
0.000493061
0.00051373
0.000452184
0.000507118
0.000519465
0.000495073
0.000515778
0.00045408
0.000509169
0.000519826
0.000495429
0.000516143
0.000454411
0.000509535
0.000525132
0.000500819
0.000521506
0.000459672
0.000515043
0.000524826
0.000500765
0.000521612
0.000459936
0.000513491
0.000519612
0.000495473
0.000516345
0.000454772
0.000508079
0.000519253
0.000495119
0.000515983
0.000454442
0.000507716
0.000517237
0.000493112
0.000513938
0.00045255
0.000505671
0.000516961
0.00049284
0.000513658
0.000452295
0.00050539
0.000516001
0.000491891
0.000512682
0.000451405
0.000504416
0.000515841
0.000491733
0.000512518
0.000451256
0.000504251
0.000515394
0.000491293
0.000512063
0.000450843
0.000503797
0.000515325
0.000491224
0.000511992
0.000450778
0.000503725
0.000515194
0.000491095
0.000511859
0.000450657
0.000503592
0.000515194
0.000491095
0.000511859
0.000450657
0.000503592
0.000515325
0.000491224
0.000511992
0.000450778
0.000503725
0.000515394
0.000491293
0.000512063
0.000450843
0.000503797
0.000515841
0.000491733
0.000512518
0.000451256
0.000504251
0.000516001
0.000491891
0.000512682
0.000451405
0.000504416
0.000516961
0.00049284
0.000513658
0.000452295
0.00050539
0.000517237
0.000493112
0.000513938
0.00045255
0.000505671
0.000519253
0.000495119
0.000515983
0.000454442
0.000507716
0.000519612
0.000495473
0.000516345
0.000454772
0.000508079
0.000524826
0.000500765
0.000521612
0.000459936
0.000513491
0.000524542
0.000500726
0.000521727
0.00046014
0.000512002
0.000519418
0.000495528
0.000516554
0.000455071
0.000506684
0.000519062
0.000495178
0.000516195
0.000454744
0.000506324
0.000517049
0.000493174
0.000514155
0.000452854
0.000504285
0.000516774
0.000492903
0.000513875
0.000452601
0.000504005
0.000515814
0.000491954
0.000512899
0.00045171
0.000503032
0.000515654
0.000491797
0.000512735
0.000451562
0.000502868
0.000515207
0.000491356
0.000512281
0.000451148
0.000502414
0.000515138
0.000491288
0.000512209
0.000451083
0.000502342
0.000515007
0.000491159
0.000512076
0.000450962
0.00050221
0.000515007
0.000491159
0.000512076
0.000450962
0.00050221
0.000515138
0.000491288
0.000512209
0.000451083
0.000502342
0.000515207
0.000491356
0.000512281
0.000451148
0.000502414
0.000515654
0.000491797
0.000512735
0.000451562
0.000502868
0.000515814
0.000491954
0.000512899
0.00045171
0.000503032
0.000516774
0.000492903
0.000513875
0.000452601
0.000504005
0.000517049
0.000493174
0.000514155
0.000452854
0.000504285
0.000519062
0.000495178
0.000516195
0.000454744
0.000506324
0.000519418
0.000495528
0.000516554
0.000455071
0.000506684
0.000524542
0.000500726
0.000521727
0.00046014
0.000512002
0.000524276
0.000500696
0.000521849
0.000460282
0.000510507
0.00051924
0.000495591
0.000516768
0.000455305
0.00050528
0.000518886
0.000495243
0.000516412
0.000454981
0.000504923
0.000516877
0.000493244
0.000514375
0.000453095
0.000502891
0.000516603
0.000492974
0.000514097
0.000452842
0.000502613
0.000515643
0.000492025
0.000513121
0.000451951
0.00050164
0.000515483
0.000491868
0.000512958
0.000451804
0.000501477
0.000515036
0.000491427
0.000512503
0.00045139
0.000501023
0.000514967
0.000491359
0.000512432
0.000451325
0.000500952
0.000514836
0.00049123
0.000512299
0.000451204
0.000500819
0.000514836
0.00049123
0.000512299
0.000451204
0.000500819
0.000514967
0.000491359
0.000512432
0.000451325
0.000500952
0.000515036
0.000491427
0.000512503
0.00045139
0.000501023
0.000515483
0.000491868
0.000512958
0.000451804
0.000501477
0.000515643
0.000492025
0.000513121
0.000451951
0.00050164
0.000516603
0.000492974
0.000514097
0.000452842
0.000502613
0.000516877
0.000493244
0.000514375
0.000453095
0.000502891
0.000518886
0.000495243
0.000516412
0.000454981
0.000504923
0.00051924
0.000495591
0.000516768
0.000455305
0.00050528
0.000524276
0.000500696
0.000521849
0.000460282
0.000510507
0.000524027
0.000500675
0.000521978
0.000460361
0.000509018
0.000519077
0.000495661
0.000516988
0.000455476
0.000503879
0.000518726
0.000495316
0.000516634
0.000455153
0.000503525
0.00051672
0.000493321
0.000514602
0.000453272
0.0005015
0.000516447
0.000493052
0.000514325
0.00045302
0.000501223
0.000515487
0.000492103
0.000513349
0.000452129
0.000500252
0.000515328
0.000491947
0.000513186
0.000451982
0.000500089
0.000514881
0.000491506
0.000512731
0.000451568
0.000499635
0.000514812
0.000491438
0.00051266
0.000451504
0.000499564
0.000514681
0.000491309
0.000512527
0.000451383
0.000499432
0.000514681
0.000491309
0.000512527
0.000451383
0.000499432
0.000514812
0.000491438
0.00051266
0.000451504
0.000499564
0.000514881
0.000491506
0.000512731
0.000451568
0.000499635
0.000515328
0.000491947
0.000513186
0.000451982
0.000500089
0.000515487
0.000492103
0.000513349
0.000452129
0.000500252
0.000516447
0.000493052
0.000514325
0.00045302
0.000501223
0.00051672
0.000493321
0.000514602
0.000453272
0.0005015
0.000518726
0.000495316
0.000516634
0.000455153
0.000503525
0.000519077
0.000495661
0.000516988
0.000455476
0.000503879
0.000524027
0.000500675
0.000521978
0.000460361
0.000509018
0.000523796
0.000500665
0.000522117
0.000460378
0.000507547
0.00051893
0.000495739
0.000517215
0.000455583
0.000502495
0.000518581
0.000495396
0.000516864
0.000455263
0.000502144
0.00051658
0.000493406
0.000514837
0.000453387
0.000500126
0.000516308
0.000493138
0.00051456
0.000453136
0.00049985
0.000515348
0.00049219
0.000513585
0.000452245
0.000498879
0.000515189
0.000492034
0.000513422
0.000452099
0.000498717
0.000514742
0.000491593
0.000512967
0.000451684
0.000498264
0.000514673
0.000491525
0.000512897
0.00045162
0.000498193
0.000514542
0.000491396
0.000512763
0.000451499
0.000498061
0.000514542
0.000491396
0.000512763
0.000451499
0.000498061
0.000514673
0.000491525
0.000512897
0.00045162
0.000498193
0.000514742
0.000491593
0.000512967
0.000451684
0.000498264
0.000515189
0.000492034
0.000513422
0.000452099
0.000498717
0.000515348
0.00049219
0.000513585
0.000452245
0.000498879
0.000516308
0.000493138
0.00051456
0.000453136
0.00049985
0.00051658
0.000493406
0.000514837
0.000453387
0.000500126
0.000518581
0.000495396
0.000516864
0.000455263
0.000502144
0.00051893
0.000495739
0.000517215
0.000455583
0.000502495
0.000523796
0.000500665
0.000522117
0.000460378
0.000507547
0.000523582
0.000500665
0.000522266
0.000460334
0.000506029
0.000518798
0.000495826
0.000517452
0.000455628
0.000501062
0.000518452
0.000495485
0.000517102
0.00045531
0.000500714
0.000516455
0.000493499
0.00051508
0.000453439
0.000498704
0.000516184
0.000493233
0.000514805
0.00045319
0.000498429
0.000515224
0.000492285
0.000513829
0.000452299
0.00049746
0.000515066
0.000492129
0.000513668
0.000452153
0.000497298
0.000514618
0.000491688
0.000513212
0.000451739
0.000496845
0.00051455
0.000491621
0.000513142
0.000451675
0.000496775
0.000514419
0.000491492
0.000513009
0.000451554
0.000496642
0.000514419
0.000491492
0.000513009
0.000451554
0.000496642
0.00051455
0.000491621
0.000513142
0.000451675
0.000496775
0.000514618
0.000491688
0.000513212
0.000451739
0.000496845
0.000515066
0.000492129
0.000513668
0.000452153
0.000497298
0.000515224
0.000492285
0.000513829
0.000452299
0.00049746
0.000516184
0.000493233
0.000514805
0.00045319
0.000498429
0.000516455
0.000493499
0.00051508
0.000453439
0.000498704
0.000518452
0.000495485
0.000517102
0.00045531
0.000500714
0.000518798
0.000495826
0.000517452
0.000455628
0.000501062
0.000523582
0.000500665
0.000522266
0.000460334
0.000506029
-1.62671e-05
1.58194e-05
2.82783e-06
6.9829e-07
2.51194e-07
1.80736e-07
1.65296e-07
1.62494e-07
1.61806e-07
1.61662e-07
1.61615e-07
1.61593e-07
1.61495e-07
1.61386e-07
1.60519e-07
1.59851e-07
1.53415e-07
1.50644e-07
1.11916e-07
1.07812e-07
-1.63366e-05
1.578e-05
2.84228e-06
7.03273e-07
2.52415e-07
1.81036e-07
1.65348e-07
1.62492e-07
1.61789e-07
1.61642e-07
1.61593e-07
1.61571e-07
1.61471e-07
1.61359e-07
1.60478e-07
1.59803e-07
1.53295e-07
1.50518e-07
1.11616e-07
1.076e-07
-1.63298e-05
1.57693e-05
2.83888e-06
7.02805e-07
2.52322e-07
1.81024e-07
1.65345e-07
1.62492e-07
1.61789e-07
1.61641e-07
1.61593e-07
1.61571e-07
1.61471e-07
1.61359e-07
1.60477e-07
1.59802e-07
1.53293e-07
1.50516e-07
1.11613e-07
1.07598e-07
-1.62999e-05
1.57161e-05
2.82231e-06
7.00583e-07
2.51887e-07
1.80967e-07
1.65332e-07
1.62489e-07
1.61787e-07
1.6164e-07
1.61592e-07
1.61569e-07
1.61469e-07
1.61357e-07
1.60475e-07
1.59799e-07
1.53286e-07
1.50509e-07
1.11601e-07
1.07592e-07
-1.62941e-05
1.57075e-05
2.81924e-06
7.00103e-07
2.51778e-07
1.80948e-07
1.65328e-07
1.62488e-07
1.61787e-07
1.6164e-07
1.61591e-07
1.61569e-07
1.61469e-07
1.61357e-07
1.60475e-07
1.59799e-07
1.53286e-07
1.50509e-07
1.11601e-07
1.07591e-07
-1.62768e-05
1.56813e-05
2.81019e-06
6.98746e-07
2.51478e-07
1.809e-07
1.65316e-07
1.62486e-07
1.61786e-07
1.6164e-07
1.61591e-07
1.61569e-07
1.61469e-07
1.61357e-07
1.60474e-07
1.59798e-07
1.53286e-07
1.50509e-07
1.11601e-07
1.07591e-07
-1.62734e-05
1.56763e-05
2.8084e-06
6.98462e-07
2.51413e-07
1.80889e-07
1.65313e-07
1.62485e-07
1.61786e-07
1.6164e-07
1.61591e-07
1.61569e-07
1.61469e-07
1.61357e-07
1.60474e-07
1.59798e-07
1.53286e-07
1.50509e-07
1.11601e-07
1.07591e-07
-1.62652e-05
1.56642e-05
2.80419e-06
6.97824e-07
2.51269e-07
1.80865e-07
1.65308e-07
1.62484e-07
1.61786e-07
1.6164e-07
1.61591e-07
1.61569e-07
1.61469e-07
1.61357e-07
1.60474e-07
1.59798e-07
1.53286e-07
1.50509e-07
1.11601e-07
1.07591e-07
-1.62637e-05
1.56621e-05
2.80341e-06
6.977e-07
2.51241e-07
1.8086e-07
1.65306e-07
1.62484e-07
1.61786e-07
1.6164e-07
1.61591e-07
1.61569e-07
1.61469e-07
1.61357e-07
1.60474e-07
1.59798e-07
1.53286e-07
1.50509e-07
1.11601e-07
1.07591e-07
-1.62614e-05
1.56585e-05
2.80218e-06
6.97515e-07
2.51199e-07
1.80853e-07
1.65305e-07
1.62484e-07
1.61786e-07
1.6164e-07
1.61591e-07
1.61569e-07
1.61469e-07
1.61357e-07
1.60474e-07
1.59798e-07
1.53286e-07
1.50509e-07
1.11601e-07
1.07591e-07
-1.62614e-05
1.56585e-05
2.80218e-06
6.97515e-07
2.51199e-07
1.80853e-07
1.65305e-07
1.62484e-07
1.61786e-07
1.6164e-07
1.61591e-07
1.61569e-07
1.61469e-07
1.61357e-07
1.60474e-07
1.59798e-07
1.53286e-07
1.50509e-07
1.11601e-07
1.07591e-07
-1.62637e-05
1.56621e-05
2.80341e-06
6.977e-07
2.51241e-07
1.8086e-07
1.65306e-07
1.62484e-07
1.61786e-07
1.6164e-07
1.61591e-07
1.61569e-07
1.61469e-07
1.61357e-07
1.60474e-07
1.59798e-07
1.53286e-07
1.50509e-07
1.11601e-07
1.07591e-07
-1.62652e-05
1.56642e-05
2.80419e-06
6.97824e-07
2.51269e-07
1.80865e-07
1.65308e-07
1.62484e-07
1.61786e-07
1.6164e-07
1.61591e-07
1.61569e-07
1.61469e-07
1.61357e-07
1.60474e-07
1.59798e-07
1.53286e-07
1.50509e-07
1.11601e-07
1.07591e-07
-1.62734e-05
1.56763e-05
2.8084e-06
6.98462e-07
2.51413e-07
1.80889e-07
1.65313e-07
1.62485e-07
1.61786e-07
1.6164e-07
1.61591e-07
1.61569e-07
1.61469e-07
1.61357e-07
1.60474e-07
1.59798e-07
1.53286e-07
1.50509e-07
1.11601e-07
1.07591e-07
-1.62768e-05
1.56813e-05
2.81019e-06
6.98746e-07
2.51478e-07
1.809e-07
1.65316e-07
1.62486e-07
1.61786e-07
1.6164e-07
1.61591e-07
1.61569e-07
1.61469e-07
1.61357e-07
1.60474e-07
1.59798e-07
1.53286e-07
1.50509e-07
1.11601e-07
1.07591e-07
-1.62941e-05
1.57075e-05
2.81924e-06
7.00103e-07
2.51778e-07
1.80948e-07
1.65328e-07
1.62488e-07
1.61787e-07
1.6164e-07
1.61591e-07
1.61569e-07
1.61469e-07
1.61357e-07
1.60475e-07
1.59799e-07
1.53286e-07
1.50509e-07
1.11601e-07
1.07591e-07
-1.62999e-05
1.57161e-05
2.82231e-06
7.00583e-07
2.51887e-07
1.80967e-07
1.65332e-07
1.62489e-07
1.61787e-07
1.6164e-07
1.61592e-07
1.61569e-07
1.61469e-07
1.61357e-07
1.60475e-07
1.59799e-07
1.53286e-07
1.50509e-07
1.11601e-07
1.07592e-07
-1.63298e-05
1.57693e-05
2.83888e-06
7.02805e-07
2.52322e-07
1.81024e-07
1.65345e-07
1.62492e-07
1.61789e-07
1.61641e-07
1.61593e-07
1.61571e-07
1.61471e-07
1.61359e-07
1.60477e-07
1.59802e-07
1.53293e-07
1.50516e-07
1.11613e-07
1.07598e-07
-1.63366e-05
1.578e-05
2.84228e-06
7.03273e-07
2.52415e-07
1.81036e-07
1.65348e-07
1.62492e-07
1.61789e-07
1.61642e-07
1.61593e-07
1.61571e-07
1.61471e-07
1.61359e-07
1.60478e-07
1.59803e-07
1.53295e-07
1.50518e-07
1.11616e-07
1.076e-07
-1.62671e-05
1.58194e-05
2.82783e-06
6.9829e-07
2.51194e-07
1.80736e-07
1.65296e-07
1.62494e-07
1.61806e-07
1.61662e-07
1.61615e-07
1.61593e-07
1.61495e-07
1.61386e-07
1.60519e-07
1.59851e-07
1.53415e-07
1.50644e-07
1.11916e-07
1.07812e-07
-1.58834e-05
1.59902e-05
2.85332e-06
7.03721e-07
2.52143e-07
1.80957e-07
1.65321e-07
1.62588e-07
1.61896e-07
1.6175e-07
1.61703e-07
1.61681e-07
1.61581e-07
1.6147e-07
1.60564e-07
1.59833e-07
1.53333e-07
1.50537e-07
1.11321e-07
1.07188e-07
-1.59479e-05
1.59507e-05
2.86793e-06
7.08761e-07
2.53379e-07
1.8126e-07
1.65374e-07
1.62586e-07
1.6188e-07
1.6173e-07
1.61681e-07
1.61659e-07
1.61557e-07
1.61444e-07
1.60522e-07
1.59784e-07
1.53212e-07
1.50409e-07
1.11017e-07
1.06972e-07
-1.59409e-05
1.59398e-05
2.8645e-06
7.08288e-07
2.53285e-07
1.81247e-07
1.65371e-07
1.62585e-07
1.6188e-07
1.6173e-07
1.61681e-07
1.61658e-07
1.61557e-07
1.61444e-07
1.60521e-07
1.59783e-07
1.5321e-07
1.50407e-07
1.11014e-07
1.0697e-07
-1.59101e-05
1.58861e-05