/*--------------------------------*- C++ -*----------------------------------*\
  =========                 |
  \\      /  F ield         | OpenFOAM: The Open Source CFD Toolbox
   \\    /   O peration     | Website:  https://openfoam.org
    \\  /    A nd           | Version:  8
     \\/     M anipulation  |
\*---------------------------------------------------------------------------*/
FoamFile
{
    version     2.0;
    format      ascii;
    class       volScalarField;
    location    "3.3";
    object      p;
}
// * * * * * * * * * * * * * * * * * * * * * * * * * * * * * * * * * * * * * //

dimensions      [0 2 -2 0 0 0 0];

internalField   nonuniform List<scalar> 
180000
(
0.000899409
0.000838537
0.000876772
0.000746925
0.000815643
0.000884886
0.000824244
0.000862197
0.000733672
0.000801248
0.000884112
0.000823506
0.000861423
0.000733025
0.000800518
0.000879886
0.000819441
0.00085718
0.000729438
0.000796536
0.000879373
0.000818952
0.000856663
0.000729009
0.00079605
0.000877474
0.000817138
0.000854751
0.000727416
0.00079426
0.000877194
0.000816873
0.000854468
0.000727182
0.000793994
0.000876344
0.000816061
0.000853611
0.000726469
0.00079319
0.000876226
0.00081595
0.000853492
0.00072637
0.000793077
0.000875983
0.000815717
0.000853246
0.000726166
0.000792847
0.000875983
0.000815717
0.000853246
0.000726166
0.000792847
0.000876226
0.00081595
0.000853492
0.00072637
0.000793077
0.000876344
0.000816061
0.000853611
0.000726469
0.00079319
0.000877194
0.000816873
0.000854468
0.000727182
0.000793994
0.000877474
0.000817138
0.000854751
0.000727416
0.00079426
0.000879373
0.000818952
0.000856663
0.000729009
0.00079605
0.000879886
0.000819441
0.00085718
0.000729438
0.000796536
0.000884112
0.000823506
0.000861423
0.000733025
0.000800518
0.000884886
0.000824244
0.000862197
0.000733672
0.000801248
0.000899409
0.000838537
0.000876772
0.000746925
0.000815643
0.000734257
0.000705978
0.000724675
0.000655633
0.000694831
0.0007279
0.00069883
0.000717955
0.000647832
0.000687296
0.000727555
0.000698454
0.000717591
0.000647445
0.000686907
0.000725623
0.000696342
0.000715551
0.000645262
0.000684743
0.000725388
0.000696088
0.000715303
0.000645002
0.00068448
0.000724512
0.000695139
0.000714377
0.000644027
0.000683501
0.000724384
0.000695
0.00071424
0.000643885
0.000683356
0.00072399
0.000694574
0.000713823
0.000643448
0.000682915
0.000723936
0.000694515
0.000713765
0.000643387
0.000682853
0.000723823
0.000694393
0.000713645
0.000643262
0.000682727
0.000723823
0.000694393
0.000713645
0.000643262
0.000682727
0.000723936
0.000694515
0.000713765
0.000643387
0.000682853
0.00072399
0.000694574
0.000713823
0.000643448
0.000682915
0.000724384
0.000695
0.00071424
0.000643885
0.000683356
0.000724512
0.000695139
0.000714377
0.000644027
0.000683501
0.000725388
0.000696088
0.000715303
0.000645002
0.00068448
0.000725623
0.000696342
0.000715551
0.000645262
0.000684743
0.000727555
0.000698454
0.000717591
0.000647445
0.000686907
0.0007279
0.00069883
0.000717955
0.000647832
0.000687296
0.000734257
0.000705978
0.000724675
0.000655633
0.000694831
0.000526982
0.000504543
0.000519831
0.000465904
0.000498859
0.00052188
0.000499079
0.000514548
0.000460236
0.000493166
0.000521603
0.000498792
0.000514262
0.000459954
0.000492871
0.000520023
0.000497141
0.000512625
0.000458325
0.000491193
0.000519833
0.000496945
0.000512429
0.000458132
0.000490991
0.000519118
0.000496204
0.000511686
0.000457405
0.000490233
0.000519014
0.000496097
0.000511578
0.0004573
0.000490122
0.000518693
0.000495765
0.000511244
0.000456974
0.00048978
0.000518649
0.00049572
0.000511198
0.000456929
0.000489733
0.000518557
0.000495624
0.000511102
0.000456836
0.000489635
0.000518557
0.000495624
0.000511102
0.000456836
0.000489635
0.000518649
0.00049572
0.000511198
0.000456929
0.000489733
0.000518693
0.000495765
0.000511244
0.000456974
0.00048978
0.000519014
0.000496097
0.000511578
0.0004573
0.000490122
0.000519118
0.000496204
0.000511686
0.000457405
0.000490233
0.000519833
0.000496945
0.000512429
0.000458132
0.000490991
0.000520023
0.000497141
0.000512625
0.000458325
0.000491193
0.000521603
0.000498792
0.000514262
0.000459954
0.000492871
0.00052188
0.000499079
0.000514548
0.000460236
0.000493166
0.000526982
0.000504543
0.000519831
0.000465904
0.000498859
0.000492337
0.000466141
0.000484091
0.000423486
0.000462729
0.000486261
0.000459989
0.000477937
0.000417538
0.000456447
0.00048593
0.000459663
0.000477602
0.000417239
0.000456119
0.000484043
0.000457793
0.000475689
0.000415508
0.000454246
0.000483818
0.000457572
0.000475459
0.000415305
0.000454021
0.000482967
0.000456734
0.000474593
0.000414533
0.000453177
0.000482844
0.000456613
0.000474467
0.000414421
0.000453053
0.000482462
0.000456238
0.000474078
0.000414076
0.000452673
0.00048241
0.000456187
0.000474025
0.000414029
0.000452621
0.0004823
0.000456079
0.000473914
0.00041393
0.000452511
0.0004823
0.000456079
0.000473914
0.00041393
0.000452511
0.00048241
0.000456187
0.000474025
0.000414029
0.000452621
0.000482462
0.000456238
0.000474078
0.000414076
0.000452673
0.000482844
0.000456613
0.000474467
0.000414421
0.000453053
0.000482967
0.000456734
0.000474593
0.000414533
0.000453177
0.000483818
0.000457572
0.000475459
0.000415305
0.000454021
0.000484043
0.000457793
0.000475689
0.000415508
0.000454246
0.00048593
0.000459663
0.000477602
0.000417239
0.000456119
0.000486261
0.000459989
0.000477937
0.000417538
0.000456447
0.000492337
0.000466141
0.000484091
0.000423486
0.000462729
0.000515265
0.000487572
0.000506896
0.000442137
0.000486973
0.000508865
0.000481088
0.000500411
0.000435879
0.000480374
0.000508512
0.000480742
0.000500055
0.000435561
0.000480023
0.000506494
0.00047874
0.000498008
0.00043371
0.000478019
0.000506253
0.000478504
0.000497762
0.000433494
0.000477778
0.000505342
0.000477607
0.000496836
0.000432668
0.000476873
0.00050521
0.000477477
0.000496701
0.000432549
0.000476741
0.000504802
0.000477076
0.000496285
0.000432179
0.000476334
0.000504746
0.000477021
0.000496228
0.000432129
0.000476277
0.000504629
0.000476906
0.000496108
0.000432023
0.000476161
0.000504629
0.000476906
0.000496108
0.000432023
0.000476161
0.000504746
0.000477021
0.000496228
0.000432129
0.000476277
0.000504802
0.000477076
0.000496285
0.000432179
0.000476334
0.00050521
0.000477477
0.000496701
0.000432549
0.000476741
0.000505342
0.000477607
0.000496836
0.000432668
0.000476873
0.000506253
0.000478504
0.000497762
0.000433494
0.000477778
0.000506494
0.00047874
0.000498008
0.00043371
0.000478019
0.000508512
0.000480742
0.000500055
0.000435561
0.000480023
0.000508865
0.000481088
0.000500411
0.000435879
0.000480374
0.000515265
0.000487572
0.000506896
0.000442137
0.000486973
0.000528053
0.000500929
0.000520343
0.000455648
0.000504106
0.000521836
0.000494584
0.000514028
0.000449463
0.000497649
0.000521489
0.000494241
0.000513676
0.000449146
0.0004973
0.000519487
0.000492242
0.000511641
0.000447279
0.000495289
0.000519249
0.000492007
0.000511398
0.000447061
0.000495049
0.000518344
0.00049111
0.000510475
0.000446228
0.00049414
0.000518214
0.000490981
0.000510341
0.000446108
0.000494007
0.000517808
0.000490579
0.000509927
0.000445734
0.000493598
0.000517753
0.000490525
0.00050987
0.000445684
0.000493542
0.000517636
0.00049041
0.000509751
0.000445577
0.000493424
0.000517636
0.00049041
0.000509751
0.000445577
0.000493424
0.000517753
0.000490525
0.00050987
0.000445684
0.000493542
0.000517808
0.000490579
0.000509927
0.000445734
0.000493598
0.000518214
0.000490981
0.000510341
0.000446108
0.000494007
0.000518344
0.00049111
0.000510475
0.000446228
0.00049414
0.000519249
0.000492007
0.000511398
0.000447061
0.000495049
0.000519487
0.000492242
0.000511641
0.000447279
0.000495289
0.000521489
0.000494241
0.000513676
0.000449146
0.0004973
0.000521836
0.000494584
0.000514028
0.000449463
0.000497649
0.000528053
0.000500929
0.000520343
0.000455648
0.000504106
0.000527981
0.000501606
0.000520974
0.000457149
0.000508892
0.000521976
0.000495466
0.000514873
0.000451146
0.000502652
0.000521638
0.000495131
0.00051453
0.000450834
0.00050231
0.000519665
0.000493158
0.000512523
0.000448984
0.000500316
0.000519432
0.000492926
0.000512284
0.000448768
0.000500079
0.000518539
0.00049204
0.000511374
0.000447941
0.000499177
0.000518411
0.000491913
0.000511242
0.000447822
0.000499046
0.00051801
0.000491515
0.000510832
0.000447452
0.000498639
0.000517956
0.000491462
0.000510777
0.000447402
0.000498584
0.000517841
0.000491348
0.000510659
0.000447295
0.000498467
0.000517841
0.000491348
0.000510659
0.000447295
0.000498467
0.000517956
0.000491462
0.000510777
0.000447402
0.000498584
0.00051801
0.000491515
0.000510832
0.000447452
0.000498639
0.000518411
0.000491913
0.000511242
0.000447822
0.000499046
0.000518539
0.00049204
0.000511374
0.000447941
0.000499177
0.000519432
0.000492926
0.000512284
0.000448768
0.000500079
0.000519665
0.000493158
0.000512523
0.000448984
0.000500316
0.000521638
0.000495131
0.00051453
0.000450834
0.00050231
0.000521976
0.000495466
0.000514873
0.000451146
0.000502652
0.000527981
0.000501606
0.000520974
0.000457149
0.000508892
0.000525341
0.000499384
0.000518896
0.000455492
0.000510568
0.000519464
0.000493384
0.00051293
0.000449631
0.000504478
0.00051913
0.000493053
0.000512591
0.000449324
0.00050414
0.000517164
0.000491088
0.000510592
0.000447481
0.000502149
0.000516932
0.000490859
0.000510356
0.000447268
0.000501913
0.000516041
0.000489975
0.000509447
0.000446443
0.000501011
0.000515914
0.000489849
0.000509317
0.000446325
0.00050088
0.000515514
0.000489453
0.000508908
0.000445955
0.000500474
0.00051546
0.0004894
0.000508853
0.000445906
0.000500419
0.000515345
0.000489286
0.000508736
0.0004458
0.000500302
0.000515345
0.000489286
0.000508736
0.0004458
0.000500302
0.00051546
0.0004894
0.000508853
0.000445906
0.000500419
0.000515514
0.000489453
0.000508908
0.000445955
0.000500474
0.000515914
0.000489849
0.000509317
0.000446325
0.00050088
0.000516041
0.000489975
0.000509447
0.000446443
0.000501011
0.000516932
0.000490859
0.000510356
0.000447268
0.000501913
0.000517164
0.000491088
0.000510592
0.000447481
0.000502149
0.00051913
0.000493053
0.000512591
0.000449324
0.00050414
0.000519464
0.000493384
0.00051293
0.000449631
0.000504478
0.000525341
0.000499384
0.000518896
0.000455492
0.000510568
0.000524084
0.000498398
0.000518135
0.000454923
0.000512977
0.0005183
0.000492502
0.000512269
0.000449171
0.000506997
0.000517968
0.000492174
0.000511933
0.000448866
0.00050666
0.000515999
0.000490209
0.000509933
0.000447023
0.000504664
0.000515768
0.00048998
0.000509697
0.00044681
0.000504427
0.000514875
0.000489095
0.000508787
0.000445984
0.000503522
0.000514747
0.000488969
0.000508656
0.000445867
0.000503391
0.000514346
0.000488572
0.000508247
0.000445496
0.000502983
0.000514293
0.000488519
0.000508192
0.000445447
0.000502928
0.000514178
0.000488406
0.000508074
0.000445341
0.00050281
0.000514178
0.000488406
0.000508074
0.000445341
0.00050281
0.000514293
0.000488519
0.000508192
0.000445447
0.000502928
0.000514346
0.000488572
0.000508247
0.000445496
0.000502983
0.000514747
0.000488969
0.000508656
0.000445867
0.000503391
0.000514875
0.000489095
0.000508787
0.000445984
0.000503522
0.000515768
0.00048998
0.000509697
0.00044681
0.000504427
0.000515999
0.000490209
0.000509933
0.000447023
0.000504664
0.000517968
0.000492174
0.000511933
0.000448866
0.00050666
0.0005183
0.000492502
0.000512269
0.000449171
0.000506997
0.000524084
0.000498398
0.000518135
0.000454923
0.000512977
0.000523765
0.000498353
0.000518303
0.000455348
0.000515675
0.000518076
0.00049256
0.000512538
0.000449697
0.000509792
0.000517747
0.000492235
0.000512204
0.000449395
0.000509457
0.000515777
0.00049027
0.000510204
0.000447551
0.000507455
0.000515547
0.000490042
0.000509969
0.000447338
0.000507219
0.000514652
0.000489156
0.000509057
0.00044651
0.000506309
0.000514525
0.00048903
0.000508927
0.000446393
0.000506178
0.000514123
0.000488633
0.000508517
0.000446022
0.000505769
0.000514069
0.00048858
0.000508462
0.000445972
0.000505713
0.000513954
0.000488466
0.000508344
0.000445866
0.000505596
0.000513954
0.000488466
0.000508344
0.000445866
0.000505596
0.000514069
0.00048858
0.000508462
0.000445972
0.000505713
0.000514123
0.000488633
0.000508517
0.000446022
0.000505769
0.000514525
0.00048903
0.000508927
0.000446393
0.000506178
0.000514652
0.000489156
0.000509057
0.00044651
0.000506309
0.000515547
0.000490042
0.000509969
0.000447338
0.000507219
0.000515777
0.00049027
0.000510204
0.000447551
0.000507455
0.000517747
0.000492235
0.000512204
0.000449395
0.000509457
0.000518076
0.00049256
0.000512538
0.000449697
0.000509792
0.000523765
0.000498353
0.000518303
0.000455348
0.000515675
0.000523542
0.000498423
0.00051856
0.000455974
0.00051752
0.000517955
0.000492737
0.000512901
0.000450426
0.000511722
0.000517628
0.000492414
0.000512571
0.000450126
0.000511388
0.00051566
0.000490451
0.000510572
0.000448282
0.000509381
0.00051543
0.000490225
0.000510338
0.00044807
0.000509145
0.000514535
0.000489338
0.000509426
0.000447241
0.000508232
0.000514408
0.000489213
0.000509296
0.000447124
0.000508101
0.000514005
0.000488815
0.000508886
0.000446751
0.000507689
0.000513952
0.000488763
0.000508831
0.000446702
0.000507634
0.000513836
0.000488649
0.000508713
0.000446595
0.000507516
0.000513836
0.000488649
0.000508713
0.000446595
0.000507516
0.000513952
0.000488763
0.000508831
0.000446702
0.000507634
0.000514005
0.000488815
0.000508886
0.000446751
0.000507689
0.000514408
0.000489213
0.000509296
0.000447124
0.000508101
0.000514535
0.000489338
0.000509426
0.000447241
0.000508232
0.00051543
0.000490225
0.000510338
0.00044807
0.000509145
0.00051566
0.000490451
0.000510572
0.000448282
0.000509381
0.000517628
0.000492414
0.000512571
0.000450126
0.000511388
0.000517955
0.000492737
0.000512901
0.000450426
0.000511722
0.000523542
0.000498423
0.00051856
0.000455974
0.00051752
0.000523206
0.000498376
0.000518688
0.000456497
0.000516305
0.000517718
0.000492795
0.000513133
0.000451051
0.000510606
0.000517395
0.000492475
0.000512806
0.000450754
0.000510275
0.000515429
0.000490516
0.000510811
0.00044891
0.000508272
0.0005152
0.00049029
0.000510577
0.000448699
0.000508037
0.000514304
0.000489403
0.000509665
0.000447869
0.000507123
0.000514178
0.000489279
0.000509536
0.000447752
0.000506993
0.000513775
0.000488881
0.000509125
0.000447379
0.000506581
0.000513722
0.000488828
0.000509071
0.00044733
0.000506526
0.000513606
0.000488714
0.000508953
0.000447223
0.000506408
0.000513606
0.000488714
0.000508953
0.000447223
0.000506408
0.000513722
0.000488828
0.000509071
0.00044733
0.000506526
0.000513775
0.000488881
0.000509125
0.000447379
0.000506581
0.000514178
0.000489279
0.000509536
0.000447752
0.000506993
0.000514304
0.000489403
0.000509665
0.000447869
0.000507123
0.0005152
0.00049029
0.000510577
0.000448699
0.000508037
0.000515429
0.000490516
0.000510811
0.00044891
0.000508272
0.000517395
0.000492475
0.000512806
0.000450754
0.000510275
0.000517718
0.000492795
0.000513133
0.000451051
0.000510606
0.000523206
0.000498376
0.000518688
0.000456497
0.000516305
0.000522831
0.000498276
0.000518757
0.000456891
0.000514219
0.00051744
0.000492798
0.000513304
0.000451545
0.000508622
0.000517119
0.000492482
0.00051298
0.00045125
0.000508296
0.000515156
0.000490525
0.000510988
0.000449408
0.000506298
0.000514928
0.000490301
0.000510756
0.000449198
0.000506065
0.000514032
0.000489414
0.000509843
0.000448367
0.000505152
0.000513906
0.00048929
0.000509714
0.00044825
0.000505022
0.000513503
0.000488892
0.000509303
0.000447877
0.000504611
0.00051345
0.000488839
0.000509249
0.000447828
0.000504556
0.000513334
0.000488725
0.000509131
0.000447721
0.000504438
0.000513334
0.000488725
0.000509131
0.000447721
0.000504438
0.00051345
0.000488839
0.000509249
0.000447828
0.000504556
0.000513503
0.000488892
0.000509303
0.000447877
0.000504611
0.000513906
0.00048929
0.000509714
0.00044825
0.000505022
0.000514032
0.000489414
0.000509843
0.000448367
0.000505152
0.000514928
0.000490301
0.000510756
0.000449198
0.000506065
0.000515156
0.000490525
0.000510988
0.000449408
0.000506298
0.000517119
0.000492482
0.00051298
0.00045125
0.000508296
0.00051744
0.000492798
0.000513304
0.000451545
0.000508622
0.000522831
0.000498276
0.000518757
0.000456891
0.000514219
0.000522479
0.000498188
0.000518832
0.000457203
0.000512393
0.000517183
0.00049281
0.000513478
0.000451955
0.000506896
0.000516864
0.000492496
0.000513157
0.000451663
0.000506573
0.000514904
0.000490544
0.000511168
0.000449823
0.000504581
0.000514677
0.00049032
0.000510937
0.000449613
0.000504349
0.00051378
0.000489433
0.000510024
0.000448781
0.000503438
0.000513655
0.00048931
0.000509896
0.000448665
0.000503308
0.000513251
0.000488911
0.000509485
0.000448291
0.000502897
0.000513198
0.000488859
0.00050943
0.000448242
0.000502843
0.000513083
0.000488745
0.000509312
0.000448135
0.000502724
0.000513083
0.000488745
0.000509312
0.000448135
0.000502724
0.000513198
0.000488859
0.00050943
0.000448242
0.000502843
0.000513251
0.000488911
0.000509485
0.000448291
0.000502897
0.000513655
0.00048931
0.000509896
0.000448665
0.000503308
0.00051378
0.000489433
0.000510024
0.000448781
0.000503438
0.000514677
0.00049032
0.000510937
0.000449613
0.000504349
0.000514904
0.000490544
0.000511168
0.000449823
0.000504581
0.000516864
0.000492496
0.000513157
0.000451663
0.000506573
0.000517183
0.00049281
0.000513478
0.000451955
0.000506896
0.000522479
0.000498188
0.000518832
0.000457203
0.000512393
0.000522158
0.000498122
0.000518923
0.000457454
0.000510829
0.000516954
0.000492841
0.000513666
0.000452303
0.000505429
0.000516638
0.00049253
0.000513348
0.000452013
0.000505108
0.000514681
0.000490581
0.000511363
0.000450176
0.000503123
0.000514455
0.000490359
0.000511132
0.000449967
0.000502892
0.000513558
0.000489472
0.00051022
0.000449134
0.000501981
0.000513433
0.000489349
0.000510092
0.000449019
0.000501853
0.000513029
0.00048895
0.00050968
0.000448644
0.000501442
0.000512976
0.000488898
0.000509626
0.000448595
0.000501387
0.00051286
0.000488784
0.000509508
0.000448488
0.000501269
0.00051286
0.000488784
0.000509508
0.000448488
0.000501269
0.000512976
0.000488898
0.000509626
0.000448595
0.000501387
0.000513029
0.00048895
0.00050968
0.000448644
0.000501442
0.000513433
0.000489349
0.000510092
0.000449019
0.000501853
0.000513558
0.000489472
0.00051022
0.000449134
0.000501981
0.000514455
0.000490359
0.000511132
0.000449967
0.000502892
0.000514681
0.000490581
0.000511363
0.000450176
0.000503123
0.000516638
0.00049253
0.000513348
0.000452013
0.000505108
0.000516954
0.000492841
0.000513666
0.000452303
0.000505429
0.000522158
0.000498122
0.000518923
0.000457454
0.000510829
0.000521859
0.000498069
0.000519023
0.000457646
0.000509328
0.000516746
0.000492884
0.000513862
0.00045259
0.000504022
0.000516433
0.000492576
0.000513546
0.000452302
0.000503705
0.000514479
0.000490631
0.000511565
0.000450468
0.000501726
0.000514254
0.000490409
0.000511336
0.00045026
0.000501496
0.000513356
0.000489522
0.000510423
0.000449427
0.000500586
0.000513232
0.0004894
0.000510296
0.000449312
0.000500458
0.000512828
0.000489001
0.000509884
0.000448937
0.000500047
0.000512775
0.000488949
0.00050983
0.000448889
0.000499993
0.000512659
0.000488835
0.000509712
0.000448781
0.000499875
0.000512659
0.000488835
0.000509712
0.000448781
0.000499875
0.000512775
0.000488949
0.00050983
0.000448889
0.000499993
0.000512828
0.000489001
0.000509884
0.000448937
0.000500047
0.000513232
0.0004894
0.000510296
0.000449312
0.000500458
0.000513356
0.000489522
0.000510423
0.000449427
0.000500586
0.000514254
0.000490409
0.000511336
0.00045026
0.000501496
0.000514479
0.000490631
0.000511565
0.000450468
0.000501726
0.000516433
0.000492576
0.000513546
0.000452302
0.000503705
0.000516746
0.000492884
0.000513862
0.00045259
0.000504022
0.000521859
0.000498069
0.000519023
0.000457646
0.000509328
0.000521578
0.000498026
0.000519131
0.000457775
0.000507821
0.000516553
0.000492934
0.000514062
0.000452812
0.000502607
0.000516242
0.000492628
0.000513749
0.000452527
0.000502292
0.000514292
0.000490688
0.000511772
0.000450697
0.00050032
0.000514068
0.000490467
0.000511544
0.00045049
0.000500092
0.000513171
0.00048958
0.000510631
0.000449657
0.000499182
0.000513047
0.000489458
0.000510504
0.000449542
0.000499055
0.000512642
0.000489059
0.000510092
0.000449167
0.000498644
0.00051259
0.000489008
0.000510039
0.000449119
0.00049859
0.000512474
0.000488893
0.00050992
0.000449011
0.000498472
0.000512474
0.000488893
0.00050992
0.000449011
0.000498472
0.00051259
0.000489008
0.000510039
0.000449119
0.00049859
0.000512642
0.000489059
0.000510092
0.000449167
0.000498644
0.000513047
0.000489458
0.000510504
0.000449542
0.000499055
0.000513171
0.00048958
0.000510631
0.000449657
0.000499182
0.000514068
0.000490467
0.000511544
0.00045049
0.000500092
0.000514292
0.000490688
0.000511772
0.000450697
0.00050032
0.000516242
0.000492628
0.000513749
0.000452527
0.000502292
0.000516553
0.000492934
0.000514062
0.000452812
0.000502607
0.000521578
0.000498026
0.000519131
0.000457775
0.000507821
0.000521314
0.000497991
0.000519245
0.000457841
0.00050632
0.000516376
0.000492991
0.000514268
0.000452971
0.000501194
0.000516068
0.000492688
0.000513957
0.000452688
0.000500883
0.000514122
0.000490752
0.000511985
0.000450862
0.000498918
0.000513898
0.000490532
0.000511758
0.000450657
0.00049869
0.000513001
0.000489646
0.000510845
0.000449824
0.000497782
0.000512877
0.000489524
0.000510719
0.000449709
0.000497655
0.000512473
0.000489125
0.000510307
0.000449334
0.000497245
0.000512421
0.000489074
0.000510253
0.000449286
0.000497191
0.000512304
0.000488959
0.000510135
0.000449178
0.000497073
0.000512304
0.000488959
0.000510135
0.000449178
0.000497073
0.000512421
0.000489074
0.000510253
0.000449286
0.000497191
0.000512473
0.000489125
0.000510307
0.000449334
0.000497245
0.000512877
0.000489524
0.000510719
0.000449709
0.000497655
0.000513001
0.000489646
0.000510845
0.000449824
0.000497782
0.000513898
0.000490532
0.000511758
0.000450657
0.00049869
0.000514122
0.000490752
0.000511985
0.000450862
0.000498918
0.000516068
0.000492688
0.000513957
0.000452688
0.000500883
0.000516376
0.000492991
0.000514268
0.000452971
0.000501194
0.000521314
0.000497991
0.000519245
0.000457841
0.00050632
0.000521067
0.000497967
0.00051937
0.000457847
0.000504837
0.000516214
0.000493056
0.000514481
0.000453067
0.000499798
0.000515908
0.000492755
0.000514173
0.000452787
0.00049949
0.000513967
0.000490824
0.000512206
0.000450966
0.000497532
0.000513745
0.000490605
0.00051198
0.000450761
0.000497306
0.000512847
0.000489719
0.000511067
0.000449928
0.000496399
0.000512724
0.000489598
0.000510941
0.000449814
0.000496272
0.000512319
0.000489199
0.000510529
0.000449439
0.000495862
0.000512267
0.000489148
0.000510475
0.000449391
0.000495808
0.000512151
0.000489033
0.000510357
0.000449284
0.00049569
0.000512151
0.000489033
0.000510357
0.000449284
0.00049569
0.000512267
0.000489148
0.000510475
0.000449391
0.000495808
0.000512319
0.000489199
0.000510529
0.000449439
0.000495862
0.000512724
0.000489598
0.000510941
0.000449814
0.000496272
0.000512847
0.000489719
0.000511067
0.000449928
0.000496399
0.000513745
0.000490605
0.00051198
0.000450761
0.000497306
0.000513967
0.000490824
0.000512206
0.000450966
0.000497532
0.000515908
0.000492755
0.000514173
0.000452787
0.00049949
0.000516214
0.000493056
0.000514481
0.000453067
0.000499798
0.000521067
0.000497967
0.00051937
0.000457847
0.000504837
0.000520838
0.000497953
0.000519505
0.000457792
0.000503307
0.000516068
0.000493129
0.000514703
0.000453101
0.000498354
0.000515764
0.00049283
0.000514397
0.000452823
0.000498048
0.000513828
0.000490905
0.000512435
0.000451008
0.000496098
0.000513606
0.000490687
0.00051221
0.000450804
0.000495873
0.000512709
0.000489801
0.000511298
0.000449972
0.000494968
0.000512586
0.00048968
0.000511173
0.000449858
0.000494842
0.000512182
0.000489281
0.00051076
0.000449483
0.000494432
0.00051213
0.00048923
0.000510707
0.000449435
0.000494378
0.000512013
0.000489116
0.000510589
0.000449328
0.000494261
0.000512013
0.000489116
0.000510589
0.000449328
0.000494261
0.00051213
0.00048923
0.000510707
0.000449435
0.000494378
0.000512182
0.000489281
0.00051076
0.000449483
0.000494432
0.000512586
0.00048968
0.000511173
0.000449858
0.000494842
0.000512709
0.000489801
0.000511298
0.000449972
0.000494968
0.000513606
0.000490687
0.00051221
0.000450804
0.000495873
0.000513828
0.000490905
0.000512435
0.000451008
0.000496098
0.000515764
0.00049283
0.000514397
0.000452823
0.000498048
0.000516068
0.000493129
0.000514703
0.000453101
0.000498354
0.000520838
0.000497953
0.000519505
0.000457792
0.000503307
-1.62656e-05
1.57693e-05
2.82909e-06
7.00419e-07
2.52221e-07
1.81009e-07
1.65392e-07
1.6252e-07
1.61815e-07
1.61664e-07
1.61616e-07
1.61593e-07
1.61495e-07
1.61386e-07
1.60519e-07
1.59851e-07
1.53415e-07
1.50644e-07
1.11916e-07
1.07812e-07
-1.63347e-05
1.573e-05
2.84413e-06
7.05592e-07
2.53503e-07
1.81325e-07
1.65449e-07
1.6252e-07
1.61798e-07
1.61644e-07
1.61594e-07
1.61571e-07
1.61471e-07
1.61359e-07
1.60478e-07
1.59803e-07
1.53295e-07
1.50518e-07
1.11616e-07
1.076e-07
-1.63288e-05
1.57204e-05
2.84119e-06
7.05198e-07
2.53427e-07
1.81316e-07
1.65447e-07
1.62519e-07
1.61798e-07
1.61644e-07
1.61594e-07
1.61571e-07
1.61471e-07
1.61359e-07
1.60477e-07
1.59802e-07
1.53293e-07
1.50516e-07
1.11613e-07
1.07598e-07
-1.62999e-05
1.56689e-05
2.8254e-06
7.03098e-07
2.53027e-07
1.81265e-07
1.65437e-07
1.62517e-07
1.61797e-07
1.61643e-07
1.61593e-07
1.6157e-07
1.61469e-07
1.61357e-07
1.60475e-07
1.59799e-07
1.53286e-07
1.50509e-07
1.11601e-07
1.07592e-07
-1.62952e-05
1.56617e-05
2.82289e-06
7.02704e-07
2.52939e-07
1.81251e-07
1.65433e-07
1.62517e-07
1.61797e-07
1.61643e-07
1.61593e-07
1.6157e-07
1.61469e-07
1.61357e-07
1.60475e-07
1.59799e-07
1.53286e-07
1.50509e-07
1.11601e-07
1.07591e-07
-1.62792e-05
1.56373e-05
2.81459e-06
7.01463e-07
2.5267e-07
1.81207e-07
1.65423e-07
1.62515e-07
1.61796e-07
1.61643e-07
1.61592e-07
1.6157e-07
1.61469e-07
1.61357e-07
1.60474e-07
1.59798e-07
1.53286e-07
1.50509e-07
1.11601e-07
1.07591e-07
-1.62766e-05
1.56334e-05
2.81322e-06
7.01245e-07
2.5262e-07
1.81199e-07
1.65421e-07
1.62514e-07
1.61796e-07
1.61643e-07
1.61592e-07
1.6157e-07
1.61469e-07
1.61357e-07
1.60474e-07
1.59798e-07
1.53286e-07
1.50509e-07
1.11601e-07
1.07591e-07
-1.62694e-05
1.56225e-05
2.80951e-06
7.00686e-07
2.52496e-07
1.81179e-07
1.65416e-07
1.62513e-07
1.61796e-07
1.61643e-07
1.61592e-07
1.6157e-07
1.61469e-07
1.61357e-07
1.60474e-07
1.59798e-07
1.53286e-07
1.50509e-07
1.11601e-07
1.07591e-07
-1.62683e-05
1.56208e-05
2.80894e-06
7.00595e-07
2.52476e-07
1.81175e-07
1.65416e-07
1.62513e-07
1.61796e-07
1.61643e-07
1.61592e-07
1.6157e-07
1.61469e-07
1.61357e-07
1.60474e-07
1.59798e-07
1.53286e-07
1.50509e-07
1.11601e-07
1.07591e-07
-1.62663e-05
1.56177e-05
2.80789e-06
7.00437e-07
2.52441e-07
1.81169e-07
1.65414e-07
1.62513e-07
1.61796e-07
1.61643e-07
1.61592e-07
1.6157e-07
1.61469e-07
1.61357e-07
1.60474e-07
1.59798e-07
1.53286e-07
1.50509e-07
1.11601e-07
1.07591e-07
-1.62663e-05
1.56177e-05
2.80789e-06
7.00437e-07
2.52441e-07
1.81169e-07
1.65414e-07
1.62513e-07
1.61796e-07
1.61643e-07
1.61592e-07
1.6157e-07
1.61469e-07
1.61357e-07
1.60474e-07
1.59798e-07
1.53286e-07
1.50509e-07
1.11601e-07
1.07591e-07
-1.62683e-05
1.56208e-05
2.80894e-06
7.00595e-07
2.52476e-07
1.81175e-07
1.65416e-07
1.62513e-07
1.61796e-07
1.61643e-07
1.61592e-07
1.6157e-07
1.61469e-07
1.61357e-07
1.60474e-07
1.59798e-07
1.53286e-07
1.50509e-07
1.11601e-07
1.07591e-07
-1.62694e-05
1.56225e-05
2.80951e-06
7.00686e-07
2.52496e-07
1.81179e-07
1.65416e-07
1.62513e-07
1.61796e-07
1.61643e-07
1.61592e-07
1.6157e-07
1.61469e-07
1.61357e-07
1.60474e-07
1.59798e-07
1.53286e-07
1.50509e-07
1.11601e-07
1.07591e-07
-1.62766e-05
1.56334e-05
2.81322e-06
7.01245e-07
2.5262e-07
1.81199e-07
1.65421e-07
1.62514e-07
1.61796e-07
1.61643e-07
1.61592e-07
1.6157e-07
1.61469e-07
1.61357e-07
1.60474e-07
1.59798e-07
1.53286e-07
1.50509e-07
1.11601e-07
1.07591e-07
-1.62792e-05
1.56373e-05
2.81459e-06
7.01463e-07
2.5267e-07
1.81207e-07
1.65423e-07
1.62515e-07
1.61796e-07
1.61643e-07
1.61592e-07
1.6157e-07
1.61469e-07
1.61357e-07
1.60474e-07
1.59798e-07
1.53286e-07
1.50509e-07
1.11601e-07
1.07591e-07
-1.62952e-05
1.56617e-05
2.82289e-06
7.02704e-07
2.52939e-07
1.81251e-07
1.65433e-07
1.62517e-07
1.61797e-07
1.61643e-07
1.61593e-07
1.6157e-07
1.61469e-07
1.61357e-07
1.60475e-07
1.59799e-07
1.53286e-07
1.50509e-07
1.11601e-07
1.07591e-07
-1.62999e-05
1.56689e-05
2.8254e-06
7.03098e-07
2.53027e-07
1.81265e-07
1.65437e-07
1.62517e-07
1.61797e-07
1.61643e-07
1.61593e-07
1.6157e-07
1.61469e-07
1.61357e-07
1.60475e-07
1.59799e-07
1.53286e-07
1.50509e-07
1.11601e-07
1.07592e-07
-1.63288e-05
1.57204e-05
2.84119e-06
7.05198e-07
2.53427e-07
1.81316e-07
1.65447e-07
1.62519e-07
1.61798e-07
1.61644e-07
1.61594e-07
1.61571e-07
1.61471e-07
1.61359e-07
1.60477e-07
1.59802e-07
1.53293e-07
1.50516e-07
1.11613e-07
1.07598e-07
-1.63347e-05
1.573e-05
2.84413e-06
7.05592e-07
2.53503e-07
1.81325e-07
1.65449e-07
1.6252e-07
1.61798e-07
1.61644e-07
1.61594e-07
1.61571e-07
1.61471e-07
1.61359e-07
1.60478e-07
1.59803e-07
1.53295e-07
1.50518e-07
1.11616e-07
1.076e-07
-1.62656e-05
1.57693e-05
2.82909e-06
7.00419e-07
2.52221e-07
1.81009e-07
1.65392e-07
1.6252e-07
1.61815e-07
1.61664e-07
1.61616e-07
1.61593e-07
1.61495e-07
1.61386e-07
1.60519e-07
1.59851e-07
1.53415e-07
1.50644e-07
1.11916e-07
1.07812e-07
-1.58806e-05
1.59396e-05
2.85461e-06
7.05875e-07
2.53183e-07
1.81232e-07
1.65419e-07
1.62613e-07
1.61906e-07
1.61753e-07
1.61703e-07
1.61681e-07
1.61582e-07
1.6147e-07
1.60564e-07
1.59833e-07
1.53333e-07
1.50537e-07
1.11321e-07
1.07188e-07
-1.59448e-05
1.59002e-05
2.86983e-06
7.11106e-07
2.5448e-07
1.81551e-07
1.65478e-07
1.62612e-07
1.6189e-07
1.61733e-07
1.61682e-07
1.61659e-07
1.61557e-07
1.61444e-07
1.60522e-07
1.59784e-07
1.53212e-07
1.50409e-07
1.11017e-07
1.06972e-07
-1.59386e-05
1.58905e-05
2.86686e-06
7.10708e-07
2.54403e-07
1.81542e-07
1.65476e-07
1.62612e-07
1.61889e-07
1.61733e-07
1.61682e-07
1.61659e-07
1.61557e-07
1.61444e-07
1.60521e-07
1.59783e-07
1.5321e-07
1.50407e-07
1.11014e-07
1.0697e-07
-1.5909e-05