/*--------------------------------*- C++ -*----------------------------------*\
  =========                 |
  \\      /  F ield         | OpenFOAM: The Open Source CFD Toolbox
   \\    /   O peration     | Website:  https://openfoam.org
    \\  /    A nd           | Version:  8
     \\/     M anipulation  |
\*---------------------------------------------------------------------------*/
FoamFile
{
    version     2.0;
    format      ascii;
    class       volScalarField;
    location    "3.3";
    object      S1;
}
// * * * * * * * * * * * * * * * * * * * * * * * * * * * * * * * * * * * * * //

dimensions      [0 1 -1 0 0 0 0];

internalField   nonuniform List<scalar> 
180000
(
-1.26603e-26
-1.21017e-22
2.14662e-18
1.50295e-13
4.64573e-09
-1.19347e-26
-8.37529e-23
3.40637e-18
1.83044e-13
5.32983e-09
-1.19397e-26
-8.34766e-23
3.42002e-18
1.83413e-13
5.33675e-09
-1.19599e-26
-8.27269e-23
3.46016e-18
1.84522e-13
5.35756e-09
-1.19685e-26
-8.29614e-23
3.45366e-18
1.84349e-13
5.35326e-09
-1.1995e-26
-8.37079e-23
3.43291e-18
1.83803e-13
5.34011e-09
-1.19991e-26
-8.38379e-23
3.42907e-18
1.837e-13
5.33759e-09
-1.20097e-26
-8.41646e-23
3.4195e-18
1.83444e-13
5.33142e-09
-1.20112e-26
-8.42135e-23
3.41804e-18
1.83404e-13
5.33045e-09
-1.20138e-26
-8.42974e-23
3.41555e-18
1.83337e-13
5.32881e-09
-1.20138e-26
-8.42974e-23
3.41555e-18
1.83337e-13
5.32881e-09
-1.20112e-26
-8.42135e-23
3.41804e-18
1.83404e-13
5.33045e-09
-1.20097e-26
-8.41646e-23
3.4195e-18
1.83444e-13
5.33142e-09
-1.19991e-26
-8.38379e-23
3.42907e-18
1.837e-13
5.33759e-09
-1.1995e-26
-8.37079e-23
3.43291e-18
1.83803e-13
5.34011e-09
-1.19685e-26
-8.29614e-23
3.45366e-18
1.84349e-13
5.35326e-09
-1.19599e-26
-8.27268e-23
3.46016e-18
1.84522e-13
5.35756e-09
-1.19397e-26
-8.34766e-23
3.42002e-18
1.83413e-13
5.33675e-09
-1.19347e-26
-8.37528e-23
3.40637e-18
1.83044e-13
5.32983e-09
-1.26603e-26
-1.21017e-22
2.14662e-18
1.50295e-13
4.64573e-09
-1.26603e-26
-1.21017e-22
2.14682e-18
1.51006e-13
5.8964e-09
-1.19348e-26
-8.37549e-23
3.4065e-18
1.83797e-13
6.66842e-09
-1.19398e-26
-8.34786e-23
3.42015e-18
1.84166e-13
6.6752e-09
-1.196e-26
-8.27288e-23
3.46028e-18
1.85272e-13
6.69409e-09
-1.19686e-26
-8.29634e-23
3.45379e-18
1.85098e-13
6.68847e-09
-1.1995e-26
-8.37098e-23
3.43304e-18
1.8455e-13
6.67099e-09
-1.19992e-26
-8.38398e-23
3.4292e-18
1.84446e-13
6.66773e-09
-1.20097e-26
-8.41665e-23
3.41963e-18
1.84188e-13
6.65957e-09
-1.20113e-26
-8.42154e-23
3.41817e-18
1.84148e-13
6.6583e-09
-1.20139e-26
-8.42993e-23
3.41568e-18
1.84081e-13
6.65611e-09
-1.20139e-26
-8.42993e-23
3.41568e-18
1.84081e-13
6.65611e-09
-1.20113e-26
-8.42154e-23
3.41817e-18
1.84148e-13
6.6583e-09
-1.20097e-26
-8.41665e-23
3.41963e-18
1.84188e-13
6.65957e-09
-1.19992e-26
-8.38398e-23
3.4292e-18
1.84446e-13
6.66773e-09
-1.1995e-26
-8.37098e-23
3.43304e-18
1.8455e-13
6.67099e-09
-1.19686e-26
-8.29634e-23
3.45379e-18
1.85098e-13
6.68847e-09
-1.196e-26
-8.27288e-23
3.46028e-18
1.85272e-13
6.69409e-09
-1.19398e-26
-8.34786e-23
3.42015e-18
1.84166e-13
6.6752e-09
-1.19348e-26
-8.37549e-23
3.4065e-18
1.83797e-13
6.66842e-09
-1.26603e-26
-1.21017e-22
2.14682e-18
1.51006e-13
5.8964e-09
-1.26603e-26
-1.21011e-22
2.15066e-18
1.56941e-13
1.49754e-08
-1.19348e-26
-8.37514e-23
3.41032e-18
1.89988e-13
1.61952e-08
-1.19399e-26
-8.34749e-23
3.42397e-18
1.90354e-13
1.62002e-08
-1.196e-26
-8.27252e-23
3.46408e-18
1.91439e-13
1.62067e-08
-1.19686e-26
-8.29597e-23
3.45758e-18
1.91258e-13
1.61938e-08
-1.19951e-26
-8.3706e-23
3.43681e-18
1.90688e-13
1.61525e-08
-1.19993e-26
-8.3836e-23
3.43297e-18
1.9058e-13
1.61452e-08
-1.20098e-26
-8.41628e-23
3.42339e-18
1.90313e-13
1.6126e-08
-1.20113e-26
-8.42116e-23
3.42193e-18
1.90272e-13
1.61231e-08
-1.2014e-26
-8.42956e-23
3.41944e-18
1.90201e-13
1.61178e-08
-1.2014e-26
-8.42955e-23
3.41944e-18
1.90201e-13
1.61178e-08
-1.20113e-26
-8.42116e-23
3.42193e-18
1.90272e-13
1.61231e-08
-1.20098e-26
-8.41628e-23
3.42339e-18
1.90313e-13
1.6126e-08
-1.19993e-26
-8.3836e-23
3.43297e-18
1.9058e-13
1.61452e-08
-1.19951e-26
-8.37061e-23
3.43681e-18
1.90688e-13
1.61525e-08
-1.19686e-26
-8.29597e-23
3.45758e-18
1.91258e-13
1.61938e-08
-1.196e-26
-8.27252e-23
3.46408e-18
1.91439e-13
1.62067e-08
-1.19399e-26
-8.34749e-23
3.42397e-18
1.90354e-13
1.62002e-08
-1.19348e-26
-8.37514e-23
3.41032e-18
1.89988e-13
1.61952e-08
-1.26603e-26
-1.21011e-22
2.15066e-18
1.56941e-13
1.49754e-08
-1.26604e-26
-1.20988e-22
2.1689e-18
1.80092e-13
4.48535e-08
-1.19349e-26
-8.3733e-23
3.42877e-18
2.13812e-13
4.70405e-08
-1.19399e-26
-8.34562e-23
3.44241e-18
2.14165e-13
4.70394e-08
-1.19601e-26
-8.27067e-23
3.48239e-18
2.15174e-13
4.7015e-08
-1.19687e-26
-8.29413e-23
3.47588e-18
2.14973e-13
4.6985e-08
-1.19951e-26
-8.36876e-23
3.45503e-18
2.14333e-13
4.68884e-08
-1.19993e-26
-8.38176e-23
3.45118e-18
2.14214e-13
4.68714e-08
-1.20098e-26
-8.41443e-23
3.44156e-18
2.13915e-13
4.68263e-08
-1.20114e-26
-8.41932e-23
3.4401e-18
2.13869e-13
4.68194e-08
-1.2014e-26
-8.42771e-23
3.43759e-18
2.13789e-13
4.68068e-08
-1.2014e-26
-8.42771e-23
3.43759e-18
2.13789e-13
4.68068e-08
-1.20114e-26
-8.41932e-23
3.4401e-18
2.13869e-13
4.68194e-08
-1.20098e-26
-8.41443e-23
3.44156e-18
2.13915e-13
4.68263e-08
-1.19993e-26
-8.38176e-23
3.45118e-18
2.14214e-13
4.68714e-08
-1.19951e-26
-8.36876e-23
3.45503e-18
2.14333e-13
4.68884e-08
-1.19687e-26
-8.29412e-23
3.47588e-18
2.14973e-13
4.6985e-08
-1.19601e-26
-8.27067e-23
3.4824e-18
2.15174e-13
4.7015e-08
-1.19399e-26
-8.34562e-23
3.44241e-18
2.14165e-13
4.70394e-08
-1.19349e-26
-8.3733e-23
3.42877e-18
2.13812e-13
4.70405e-08
-1.26604e-26
-1.20988e-22
2.1689e-18
1.80092e-13
4.48535e-08
-1.26603e-26
-1.20927e-22
2.224e-18
2.39068e-13
1.06946e-07
-1.19349e-26
-8.36774e-23
3.48432e-18
2.73867e-13
1.10338e-07
-1.19399e-26
-8.34003e-23
3.49791e-18
2.74186e-13
1.10324e-07
-1.19601e-26
-8.26513e-23
3.53756e-18
2.75011e-13
1.10245e-07
-1.19687e-26
-8.28859e-23
3.53098e-18
2.74766e-13
1.10189e-07
-1.19951e-26
-8.36324e-23
3.50992e-18
2.73977e-13
1.10011e-07
-1.19993e-26
-8.37624e-23
3.50603e-18
2.73833e-13
1.0998e-07
-1.20098e-26
-8.40892e-23
3.49632e-18
2.73465e-13
1.09896e-07
-1.20114e-26
-8.4138e-23
3.49484e-18
2.73409e-13
1.09883e-07
-1.2014e-26
-8.4222e-23
3.49231e-18
2.73309e-13
1.0986e-07
-1.2014e-26
-8.4222e-23
3.49231e-18
2.73309e-13
1.0986e-07
-1.20114e-26
-8.4138e-23
3.49484e-18
2.73409e-13
1.09883e-07
-1.20098e-26
-8.40892e-23
3.49632e-18
2.73465e-13
1.09896e-07
-1.19993e-26
-8.37624e-23
3.50603e-18
2.73833e-13
1.0998e-07
-1.19951e-26
-8.36324e-23
3.50992e-18
2.73977e-13
1.10011e-07
-1.19687e-26
-8.28858e-23
3.53098e-18
2.74766e-13
1.10189e-07
-1.19601e-26
-8.26513e-23
3.53756e-18
2.75011e-13
1.10245e-07
-1.19399e-26
-8.34002e-23
3.49791e-18
2.74186e-13
1.10324e-07
-1.19349e-26
-8.36774e-23
3.48432e-18
2.73867e-13
1.10338e-07
-1.26603e-26
-1.20927e-22
2.224e-18
2.39068e-13
1.06946e-07
-1.26602e-26
-1.20782e-22
2.35176e-18
3.5517e-13
2.0585e-07
-1.19348e-26
-8.35408e-23
3.61251e-18
3.91165e-13
2.10243e-07
-1.19398e-26
-8.32633e-23
3.62599e-18
3.91417e-13
2.10206e-07
-1.196e-26
-8.25156e-23
3.66488e-18
3.91885e-13
2.10034e-07
-1.19686e-26
-8.27503e-23
3.65817e-18
3.91564e-13
2.09947e-07
-1.19951e-26
-8.34973e-23
3.63664e-18
3.90514e-13
2.09669e-07
-1.19992e-26
-8.36273e-23
3.63269e-18
3.90328e-13
2.09619e-07
-1.20098e-26
-8.39544e-23
3.62276e-18
3.8984e-13
2.09488e-07
-1.20113e-26
-8.40033e-23
3.62125e-18
3.89766e-13
2.09468e-07
-1.20139e-26
-8.40873e-23
3.61866e-18
3.89633e-13
2.09431e-07
-1.20139e-26
-8.40873e-23
3.61866e-18
3.89633e-13
2.09431e-07
-1.20113e-26
-8.40033e-23
3.62125e-18
3.89766e-13
2.09468e-07
-1.20098e-26
-8.39544e-23
3.62276e-18
3.8984e-13
2.09488e-07
-1.19992e-26
-8.36273e-23
3.63269e-18
3.90328e-13
2.09619e-07
-1.19951e-26
-8.34973e-23
3.63664e-18
3.90514e-13
2.09669e-07
-1.19686e-26
-8.27502e-23
3.65817e-18
3.91564e-13
2.09947e-07
-1.196e-26
-8.25156e-23
3.66488e-18
3.91885e-13
2.10034e-07
-1.19398e-26
-8.32633e-23
3.62599e-18
3.91417e-13
2.10206e-07
-1.19348e-26
-8.35407e-23
3.61251e-18
3.91165e-13
2.10243e-07
-1.26602e-26
-1.20782e-22
2.35176e-18
3.55169e-13
2.0585e-07
-1.26599e-26
-1.20481e-22
2.60149e-18
5.49782e-13
3.41625e-07
-1.19346e-26
-8.32499e-23
3.86195e-18
5.86635e-13
3.46533e-07
-1.19396e-26
-8.29722e-23
3.87518e-18
5.86772e-13
3.4646e-07
-1.19597e-26
-8.2227e-23
3.91259e-18
5.86625e-13
3.46126e-07
-1.19683e-26
-8.2462e-23
3.90564e-18
5.86188e-13
3.46001e-07
-1.19948e-26
-8.32102e-23
3.88325e-18
5.84734e-13
3.45601e-07
-1.1999e-26
-8.33404e-23
3.87916e-18
5.84483e-13
3.4553e-07
-1.20095e-26
-8.3668e-23
3.86884e-18
5.83809e-13
3.45342e-07
-1.2011e-26
-8.3717e-23
3.86727e-18
5.83709e-13
3.45312e-07
-1.20137e-26
-8.38012e-23
3.86457e-18
5.83522e-13
3.45259e-07
-1.20137e-26
-8.38011e-23
3.86457e-18
5.83522e-13
3.45259e-07
-1.2011e-26
-8.3717e-23
3.86727e-18
5.83709e-13
3.45312e-07
-1.20095e-26
-8.3668e-23
3.86884e-18
5.83809e-13
3.45342e-07
-1.1999e-26
-8.33404e-23
3.87916e-18
5.84483e-13
3.4553e-07
-1.19948e-26
-8.32102e-23
3.88325e-18
5.84734e-13
3.45601e-07
-1.19683e-26
-8.2462e-23
3.90564e-18
5.86188e-13
3.46001e-07
-1.19597e-26
-8.2227e-23
3.91259e-18
5.86625e-13
3.46126e-07
-1.19396e-26
-8.29722e-23
3.87518e-18
5.86772e-13
3.4646e-07
-1.19346e-26
-8.32498e-23
3.86195e-18
5.86635e-13
3.46533e-07
-1.26599e-26
-1.20481e-22
2.60149e-18
5.49782e-13
3.41625e-07
-1.26592e-26
-1.19909e-22
3.03557e-18
8.43744e-13
5.1324e-07
-1.1934e-26
-8.26943e-23
4.29386e-18
8.80585e-13
5.18045e-07
-1.19389e-26
-8.24167e-23
4.30665e-18
8.80542e-13
5.17919e-07
-1.19591e-26
-8.16764e-23
4.34147e-18
8.79423e-13
5.17324e-07
-1.19677e-26
-8.1912e-23
4.33411e-18
8.78819e-13
5.17153e-07
-1.19942e-26
-8.26625e-23
4.31027e-18
8.76779e-13
5.16596e-07
-1.19984e-26
-8.27931e-23
4.30596e-18
8.76435e-13
5.165e-07
-1.20089e-26
-8.31217e-23
4.29498e-18
8.75494e-13
5.1624e-07
-1.20104e-26
-8.31708e-23
4.29332e-18
8.75354e-13
5.162e-07
-1.20131e-26
-8.32553e-23
4.29043e-18
8.75092e-13
5.16125e-07
-1.20131e-26
-8.32553e-23
4.29043e-18
8.75092e-13
5.16125e-07
-1.20104e-26
-8.31708e-23
4.29332e-18
8.75354e-13
5.162e-07
-1.20089e-26
-8.31217e-23
4.29498e-18
8.75494e-13
5.1624e-07
-1.19984e-26
-8.27931e-23
4.30596e-18
8.76435e-13
5.165e-07
-1.19942e-26
-8.26625e-23
4.31027e-18
8.76779e-13
5.16596e-07
-1.19677e-26
-8.1912e-23
4.33411e-18
8.78819e-13
5.17153e-07
-1.19591e-26
-8.16764e-23
4.34147e-18
8.79423e-13
5.17324e-07
-1.19389e-26
-8.24167e-23
4.30665e-18
8.80542e-13
5.17919e-07
-1.1934e-26
-8.26943e-23
4.29386e-18
8.80585e-13
5.18045e-07
-1.26592e-26
-1.19909e-22
3.03556e-18
8.43744e-13
5.1324e-07
-1.26579e-26
-1.1891e-22
3.7292e-18
1.2574e-12
7.19745e-07
-1.19327e-26
-8.17191e-23
4.98177e-18
1.29276e-12
7.23723e-07
-1.19377e-26
-8.14421e-23
4.99385e-18
1.29246e-12
7.23525e-07
-1.19579e-26
-8.07103e-23
5.02448e-18
1.28989e-12
7.22539e-07
-1.19665e-26
-8.0947e-23
5.01649e-18
1.28906e-12
7.22311e-07
-1.1993e-26
-8.17017e-23
4.99038e-18
1.28621e-12
7.21552e-07
-1.19971e-26
-8.18329e-23
4.98572e-18
1.28574e-12
7.21424e-07
-1.20077e-26
-8.21634e-23
4.97371e-18
1.28443e-12
7.21072e-07
-1.20092e-26
-8.22127e-23
4.97191e-18
1.28423e-12
7.21019e-07
-1.20118e-26
-8.22977e-23
4.96872e-18
1.28387e-12
7.20918e-07
-1.20118e-26
-8.22977e-23
4.96872e-18
1.28387e-12
7.20918e-07
-1.20092e-26
-8.22127e-23
4.97191e-18
1.28423e-12
7.21019e-07
-1.20077e-26
-8.21634e-23
4.97371e-18
1.28443e-12
7.21072e-07
-1.19971e-26
-8.18329e-23
4.98572e-18
1.28574e-12
7.21424e-07
-1.1993e-26
-8.17017e-23
4.99038e-18
1.28621e-12
7.21552e-07
-1.19665e-26
-8.0947e-23
5.01649e-18
1.28906e-12
7.22311e-07
-1.19579e-26
-8.07103e-23
5.02448e-18
1.28989e-12
7.22539e-07
-1.19377e-26
-8.14421e-23
4.99385e-18
1.29246e-12
7.23525e-07
-1.19327e-26
-8.17191e-23
4.98177e-18
1.29276e-12
7.23723e-07
-1.26579e-26
-1.1891e-22
3.7292e-18
1.2574e-12
7.19745e-07
-1.26555e-26
-1.1727e-22
4.76985e-18
1.81028e-12
9.59678e-07
-1.19305e-26
-8.01178e-23
6.01095e-18
1.84202e-12
9.61968e-07
-1.19354e-26
-7.98423e-23
6.02192e-18
1.84135e-12
9.61674e-07
-1.19557e-26
-7.91244e-23
6.04614e-18
1.83673e-12
9.60141e-07
-1.19642e-26
-7.9363e-23
6.03724e-18
1.8356e-12
9.59844e-07
-1.19907e-26
-8.01245e-23
6.00775e-18
1.83165e-12
9.58826e-07
-1.19949e-26
-8.02567e-23
6.00258e-18
1.83102e-12
9.5866e-07
-1.20055e-26
-8.05903e-23
5.98905e-18
1.82921e-12
9.5819e-07
-1.2007e-26
-8.06401e-23
5.98704e-18
1.82895e-12
9.58121e-07
-1.20096e-26
-8.0726e-23
5.98342e-18
1.82844e-12
9.57987e-07
-1.20096e-26
-8.0726e-23
5.98342e-18
1.82844e-12
9.57987e-07
-1.2007e-26
-8.06401e-23
5.98704e-18
1.82895e-12
9.58121e-07
-1.20055e-26
-8.05903e-23
5.98905e-18
1.82921e-12
9.5819e-07
-1.19949e-26
-8.02567e-23
6.00258e-18
1.83102e-12
9.5866e-07
-1.19907e-26
-8.01245e-23
6.00775e-18
1.83165e-12
9.58826e-07
-1.19642e-26
-7.9363e-23
6.03724e-18
1.8356e-12
9.59844e-07
-1.19557e-26
-7.91244e-23
6.04614e-18
1.83673e-12
9.60141e-07
-1.19354e-26
-7.98423e-23
6.02192e-18
1.84135e-12
9.61674e-07
-1.19305e-26
-8.01178e-23
6.01095e-18
1.84202e-12
9.61968e-07
-1.26555e-26
-1.1727e-22
4.76985e-18
1.81028e-12
9.59678e-07
-1.26515e-26
-1.14779e-22
6.15642e-18
2.36169e-12
9.57395e-07
-1.19267e-26
-7.76848e-23
7.38025e-18
2.38982e-12
9.59742e-07
-1.19316e-26
-7.74119e-23
7.38974e-18
2.38879e-12
9.59452e-07
-1.19519e-26
-7.67152e-23
7.40537e-18
2.38214e-12
9.5794e-07
-1.19605e-26
-7.69566e-23
7.39526e-18
2.38071e-12
9.57647e-07
-1.1987e-26
-7.77286e-23
7.36131e-18
2.37568e-12
9.56638e-07
-1.19912e-26
-7.78624e-23
7.35547e-18
2.37488e-12
9.56474e-07
-1.20017e-26
-7.82007e-23
7.33992e-18
2.37258e-12
9.56009e-07
-1.20033e-26
-7.82512e-23
7.33763e-18
2.37225e-12
9.55941e-07
-1.20059e-26
-7.83385e-23
7.33343e-18
2.3716e-12
9.55808e-07
-1.20059e-26
-7.83384e-23
7.33343e-18
2.3716e-12
9.55808e-07
-1.20033e-26
-7.82512e-23
7.33763e-18
2.37225e-12
9.55941e-07
-1.20017e-26
-7.82007e-23
7.33992e-18
2.37258e-12
9.56009e-07
-1.19912e-26
-7.78624e-23
7.35547e-18
2.37488e-12
9.56474e-07
-1.1987e-26
-7.77287e-23
7.36131e-18
2.37568e-12
9.56638e-07
-1.19605e-26
-7.69566e-23
7.39526e-18
2.38071e-12
9.57647e-07
-1.19519e-26
-7.67152e-23
7.40537e-18
2.38214e-12
9.5794e-07
-1.19316e-26
-7.74119e-23
7.38974e-18
2.38879e-12
9.59452e-07
-1.19267e-26
-7.76848e-23
7.38025e-18
2.38982e-12
9.59742e-07
-1.26515e-26
-1.14779e-22
6.15642e-18
2.36169e-12
9.57395e-07
-1.26453e-26
-1.11226e-22
7.88772e-18
2.91163e-12
9.55183e-07
-1.19207e-26
-7.42152e-23
9.0885e-18
2.93617e-12
9.57584e-07
-1.19256e-26
-7.39464e-23
9.09614e-18
2.93478e-12
9.57298e-07
-1.1946e-26
-7.32801e-23
9.101e-18
2.92611e-12
9.55807e-07
-1.19546e-26
-7.35255e-23
9.08939e-18
2.92439e-12
9.55516e-07
-1.19811e-26
-7.43125e-23
9.0499e-18
2.91828e-12
9.54518e-07
-1.19853e-26
-7.44485e-23
9.04323e-18
2.91732e-12
9.54355e-07
-1.19959e-26
-7.47936e-23
9.02518e-18
2.91453e-12
9.53895e-07
-1.19974e-26
-7.4845e-23
9.02254e-18
2.91413e-12
9.53827e-07
-1.20001e-26
-7.49342e-23
9.01762e-18
2.91334e-12
9.53696e-07
-1.20001e-26
-7.49342e-23
9.01762e-18
2.91334e-12
9.53696e-07
-1.19974e-26
-7.4845e-23
9.02254e-18
2.91413e-12
9.53827e-07
-1.19959e-26
-7.47936e-23
9.02518e-18
2.91453e-12
9.53895e-07
-1.19853e-26
-7.44485e-23
9.04323e-18
2.91732e-12
9.54355e-07
-1.19811e-26
-7.43126e-23
9.0499e-18
2.91828e-12
9.54518e-07
-1.19546e-26
-7.35255e-23
9.08939e-18
2.92439e-12
9.55516e-07
-1.1946e-26
-7.32801e-23
9.101e-18
2.92611e-12
9.55807e-07
-1.19256e-26
-7.39464e-23
9.09614e-18
2.93478e-12
9.57298e-07
-1.19207e-26
-7.42152e-23
9.0885e-18
2.93617e-12
9.57584e-07
-1.26453e-26
-1.11226e-22
7.88772e-18
2.91163e-12
9.55183e-07
-1.2636e-26
-1.06403e-22
9.9625e-18
3.46003e-12
9.53036e-07
-1.19118e-26
-6.95052e-23
1.11344e-17
3.48097e-12
9.55489e-07
-1.19167e-26
-6.92423e-23
1.11398e-17
3.47923e-12
9.55206e-07
-1.19371e-26
-6.86174e-23
1.11318e-17
3.46856e-12
9.53736e-07
-1.19457e-26
-6.88682e-23
1.11184e-17
3.46655e-12
9.53447e-07
-1.19723e-26
-6.96756e-23
1.10723e-17
3.45938e-12
9.52459e-07
-1.19765e-26
-6.98146e-23
1.10646e-17
3.45825e-12
9.52298e-07
-1.19871e-26
-7.01688e-23
1.10436e-17
3.45498e-12
9.51842e-07
-1.19886e-26
-7.02215e-23
1.10405e-17
3.45451e-12
9.51775e-07
-1.19913e-26
-7.03133e-23
1.10348e-17
3.45358e-12
9.51644e-07
-1.19913e-26
-7.03132e-23
1.10348e-17
3.45358e-12
9.51644e-07
-1.19886e-26
-7.02215e-23
1.10405e-17
3.45451e-12
9.51775e-07
-1.19871e-26
-7.01688e-23
1.10436e-17
3.45498e-12
9.51842e-07
-1.19765e-26
-6.98146e-23
1.10646e-17
3.45825e-12
9.52298e-07
-1.19723e-26
-6.96756e-23
1.10723e-17
3.45938e-12
9.52459e-07
-1.19457e-26
-6.88682e-23
1.11184e-17
3.46655e-12
9.53447e-07
-1.19371e-26
-6.86174e-23
1.11318e-17
3.46856e-12
9.53736e-07
-1.19167e-26
-6.92423e-23
1.11398e-17
3.47923e-12
9.55206e-07
-1.19118e-26
-6.95052e-23
1.11344e-17
3.48097e-12
9.55489e-07
-1.2636e-26
-1.06403e-22
9.9625e-18
3.46003e-12
9.53036e-07
-1.26226e-26
-1.001e-22
1.23794e-17
4.00679e-12
9.50948e-07
-1.18989e-26
-6.33521e-23
1.35166e-17
4.02415e-12
9.53451e-07
-1.19038e-26
-6.30971e-23
1.35195e-17
4.02206e-12
9.53172e-07
-1.19244e-26
-6.25262e-23
1.34964e-17
4.00942e-12
9.51721e-07
-1.1933e-26
-6.27841e-23
1.3481e-17
4.00712e-12
9.51435e-07
-1.19597e-26
-6.36181e-23
1.34272e-17
3.99889e-12
9.50456e-07
-1.19639e-26
-6.3761e-23
1.34184e-17
3.9976e-12
9.50296e-07
-1.19745e-26
-6.41272e-23
1.33939e-17
3.99385e-12
9.49845e-07
-1.1976e-26
-6.41815e-23
1.33903e-17
3.99332e-12
9.49778e-07
-1.19787e-26
-6.42767e-23
1.33836e-17
3.99225e-12
9.49649e-07
-1.19787e-26
-6.42767e-23
1.33836e-17
3.99225e-12
9.49649e-07
-1.1976e-26
-6.41815e-23
1.33903e-17
3.99332e-12
9.49778e-07
-1.19745e-26
-6.41272e-23
1.33939e-17
3.99385e-12
9.49845e-07
-1.19639e-26
-6.3761e-23
1.34184e-17
3.9976e-12
9.50296e-07
-1.19597e-26
-6.36181e-23
1.34272e-17
3.99889e-12
9.50456e-07
-1.1933e-26
-6.27841e-23
1.3481e-17
4.00712e-12
9.51435e-07
-1.19244e-26
-6.25262e-23
1.34964e-17
4.00942e-12
9.51721e-07
-1.19038e-26
-6.30972e-23
1.35195e-17
4.02206e-12
9.53172e-07
-1.18989e-26
-6.33521e-23
1.35166e-17
4.02415e-12
9.53451e-07
-1.26226e-26
-1.001e-22
1.23794e-17
4.00679e-12
9.50948e-07
-1.26041e-26
-9.21095e-23
1.5137e-17
4.55184e-12
9.48916e-07
-1.18811e-26
-5.5554e-23
1.62337e-17
4.56563e-12
9.51467e-07
-1.1886e-26
-5.53094e-23
1.62336e-17
4.5632e-12
9.51192e-07
-1.19068e-26
-5.48069e-23
1.61934e-17
4.54861e-12
9.49759e-07
-1.19154e-26
-5.50737e-23
1.61757e-17
4.54602e-12
9.49476e-07
-1.19422e-26
-5.59414e-23
1.61131e-17
4.53674e-12
9.48506e-07
-1.19464e-26
-5.60892e-23
1.6103e-17
4.5353e-12
9.48347e-07
-1.19571e-26
-5.64706e-23
1.60746e-17
4.53106e-12
9.479e-07
-1.19586e-26
-5.65269e-23
1.60705e-17
4.53047e-12
9.47834e-07
-1.19613e-26
-5.66265e-23
1.60626e-17
4.52926e-12
9.47706e-07
-1.19613e-26
-5.66264e-23
1.60626e-17
4.52926e-12
9.47706e-07
-1.19586e-26
-5.65269e-23
1.60705e-17
4.53047e-12
9.47834e-07
-1.19571e-26
-5.64706e-23
1.60746e-17
4.53106e-12
9.479e-07
-1.19464e-26
-5.60892e-23
1.6103e-17
4.5353e-12
9.48347e-07
-1.19422e-26
-5.59414e-23
1.61131e-17
4.53674e-12
9.48506e-07
-1.19154e-26
-5.50737e-23
1.61757e-17
4.54602e-12
9.49476e-07
-1.19068e-26
-5.48069e-23
1.61934e-17
4.54861e-12
9.49759e-07
-1.1886e-26
-5.53094e-23
1.62336e-17
4.5632e-12
9.51192e-07
-1.18811e-26
-5.5554e-23
1.62337e-17
4.56563e-12
9.51467e-07
-1.26041e-26
-9.21095e-23
1.5137e-17
4.55184e-12
9.48916e-07
-1.25793e-26
-8.22261e-23
1.82338e-17
5.0951e-12
9.46935e-07
-1.18571e-26
-4.59102e-23
1.92841e-17
5.10533e-12
9.49532e-07
-1.1862e-26
-4.56786e-23
1.92807e-17
5.10256e-12
9.4926e-07
-1.18831e-26
-4.52607e-23
1.92214e-17
5.08604e-12
9.47846e-07
-1.18918e-26
-4.55385e-23
1.9201e-17
5.08317e-12
9.47565e-07
-1.19187e-26
-4.64479e-23
1.91287e-17
5.07284e-12
9.46603e-07
-1.19229e-26
-4.66017e-23
1.91172e-17
5.07125e-12
9.46446e-07
-1.19337e-26
-4.70019e-23
1.90843e-17
5.06654e-12
9.46003e-07
-1.19352e-26
-4.70607e-23
1.90796e-17
5.06588e-12
9.45938e-07
-1.19379e-26
-4.71656e-23
1.90705e-17
5.06454e-12
9.45811e-07
-1.19379e-26
-4.71656e-23
1.90705e-17
5.06454e-12
9.45811e-07
-1.19352e-26
-4.70607e-23
1.90796e-17
5.06588e-12
9.45938e-07
-1.19337e-26
-4.70019e-23
1.90843e-17
5.06654e-12
9.46003e-07
-1.19229e-26
-4.66017e-23
1.91172e-17
5.07125e-12
9.46446e-07
-1.19187e-26
-4.64479e-23
1.91287e-17
5.07284e-12
9.46603e-07
-1.18918e-26
-4.55385e-23
1.9201e-17
5.08317e-12
9.47565e-07
-1.18831e-26
-4.52607e-23
1.92214e-17
5.08604e-12
9.47846e-07
-1.1862e-26
-4.56786e-23
1.92807e-17
5.10256e-12
9.4926e-07
-1.18571e-26
-4.59102e-23
1.92841e-17
5.10533e-12
9.49532e-07
-1.25793e-26
-8.22261e-23
1.82338e-17
5.0951e-12
9.46935e-07
-1.25467e-26
-7.0244e-23
2.16681e-17
5.63649e-12
9.45002e-07
-1.18257e-26
-3.42213e-23
2.26662e-17
5.64316e-12
9.47643e-07
-1.18307e-26
-3.40057e-23
2.26592e-17
5.64006e-12
9.47375e-07
-1.18521e-26
-3.36902e-23
2.25786e-17
5.62163e-12
9.45977e-07
-1.18608e-26
-3.39812e-23
2.25554e-17
5.61848e-12
9.45699e-07
-1.18879e-26
-3.49411e-23
2.24722e-17
5.60712e-12
9.44746e-07
-1.18922e-26
-3.51022e-23
2.24592e-17
5.60537e-12
9.4459e-07
-1.1903e-26
-3.5525e-23
2.24214e-17
5.6002e-12
9.44151e-07
-1.19046e-26
-3.55869e-23
2.24161e-17
5.59947e-12
9.44086e-07
-1.19073e-26
-3.56983e-23
2.24055e-17
5.598e-12
9.4396e-07
-1.19073e-26
-3.56983e-23
2.24055e-17
5.598e-12
9.4396e-07
-1.19046e-26
-3.55869e-23
2.24161e-17
5.59947e-12
9.44086e-07
-1.1903e-26
-3.5525e-23
2.24214e-17
5.6002e-12
9.44151e-07
-1.18922e-26
-3.51022e-23
2.24592e-17
5.60537e-12
9.4459e-07
-1.18879e-26
-3.49411e-23
2.24722e-17
5.60712e-12
9.44746e-07
-1.18608e-26
-3.39812e-23
2.25554e-17
5.61848e-12
9.45699e-07
-1.18521e-26
-3.36902e-23
2.25786e-17
5.62163e-12
9.45977e-07
-1.18307e-26
-3.40057e-23
2.26592e-17
5.64006e-12
9.47375e-07
-1.18257e-26
-3.42213e-23
2.26662e-17
5.64316e-12
9.47643e-07
-1.25467e-26
-7.0244e-23
2.16681e-17
5.63649e-12
9.45002e-07
-1.2505e-26
-5.5959e-23
2.54384e-17
6.1759e-12
9.4311e-07
-1.17855e-26
-2.02889e-23
2.63782e-17
6.17903e-12
9.45795e-07
-1.17905e-26
-2.00925e-23
2.63673e-17
6.1756e-12
9.45529e-07
-1.18124e-26
-1.98988e-23
2.62636e-17
6.15529e-12
9.44149e-07
-1.18212e-26
-2.02057e-23
2.62372e-17
6.15187e-12
9.43873e-07
-1.18485e-26
-2.12256e-23
2.61422e-17
6.13949e-12
9.42928e-07
-1.18528e-26
-2.13953e-23
2.61274e-17
6.13759e-12
9.42774e-07
-1.18637e-26
-2.18452e-23
2.60843e-17
6.13195e-12
9.42338e-07
-1.18652e-26
-2.19107e-23
2.60782e-17
6.13116e-12
9.42274e-07
-1.1868e-26
-2.20299e-23
2.60662e-17
6.12955e-12
9.42149e-07
-1.1868e-26
-2.20298e-23
2.60662e-17
6.12955e-12
9.42149e-07
-1.18652e-26
-2.19107e-23
2.60782e-17
6.13116e-12
9.42274e-07
-1.18637e-26
-2.18452e-23
2.60843e-17
6.13195e-12
9.42338e-07
-1.18528e-26
-2.13953e-23
2.61274e-17
6.13759e-12
9.42774e-07
-1.18485e-26
-2.12256e-23
2.61422e-17
6.13949e-12
9.42928e-07
-1.18212e-26
-2.02057e-23
2.62372e-17
6.15187e-12
9.43873e-07
-1.18124e-26
-1.98989e-23
2.62636e-17
6.15529e-12
9.44149e-07
-1.17905e-26
-2.00925e-23
2.63673e-17
6.1756e-12
9.45529e-07
-1.17855e-26
-2.02889e-23
2.63782e-17
6.17903e-12
9.45795e-07
-1.2505e-26
-5.5959e-23
2.54384e-17
6.1759e-12
9.4311e-07
-1.24525e-26
-3.91682e-23
2.95428e-17
6.71325e-12
9.41253e-07
-1.17348e-26
-3.91602e-24
3.04185e-17
6.71285e-12
9.43979e-07
-1.17399e-26
-3.74231e-24
3.04034e-17
6.7091e-12
9.43717e-07
-1.17624e-26
-3.69156e-24
3.02744e-17
6.68693e-12
9.42353e-07
-1.17712e-26
-4.01682e-24
3.02447e-17
6.68324e-12
9.42079e-07
-1.17988e-26
-5.10727e-24
3.01368e-17
6.66985e-12
9.41142e-07
-1.18031e-26
-5.28711e-24
3.01202e-17
6.6678e-12
9.40989e-07
-1.18142e-26
-5.76874e-24
3.00712e-17
6.6617e-12
9.40557e-07
-1.18158e-26
-5.83848e-24
3.00644e-17
6.66085e-12
9.40493e-07
-1.18185e-26
-5.96668e-24
3.00507e-17
6.65911e-12
9.4037e-07
-1.18185e-26
-5.96666e-24
3.00507e-17
6.65911e-12
9.4037e-07
-1.18158e-26
-5.83848e-24
3.00644e-17
6.66085e-12
9.40493e-07
-1.18142e-26
-5.76874e-24
3.00712e-17
6.6617e-12
9.40557e-07
-1.18031e-26
-5.28711e-24
3.01202e-17
6.6678e-12
9.40989e-07
-1.17988e-26
-5.10729e-24
3.01368e-17
6.66985e-12
9.41142e-07
-1.17712e-26
-4.01682e-24
3.02447e-17
6.68324e-12
9.42079e-07
-1.17624e-26
-3.69158e-24
3.02744e-17
6.68693e-12
9.42353e-07
-1.17399e-26
-3.74233e-24
3.04034e-17
6.7091e-12
9.43717e-07
-1.17348e-26
-3.91603e-24
3.04185e-17
6.71285e-12
9.43979e-07
-1.24525e-26
-3.91682e-23
2.95428e-17
6.71325e-12
9.41253e-07
-1.23874e-26
-1.96698e-23
3.39795e-17
7.24842e-12
9.39396e-07
-1.1672e-26
1.50932e-23
3.47852e-17
7.2445e-12
9.42163e-07
-1.16772e-26
1.52404e-23
3.47654e-17
7.24044e-12
9.41904e-07
-1.17004e-26
1.51256e-23
3.46094e-17
7.21643e-12
9.40557e-07
-1.17093e-26
1.4779e-23
3.4576e-17
7.21248e-12
9.40285e-07
-1.17373e-26
1.36068e-23
3.44543e-17
7.19809e-12
9.39356e-07
-1.17416e-26
1.34153e-23
3.44357e-17
7.19589e-12
9.39205e-07
-1.17528e-26
1.28969e-23
3.43805e-17
7.18934e-12
9.38776e-07
-1.17544e-26
1.28222e-23
3.43728e-17
7.18842e-12
9.38713e-07
-1.17573e-26
1.26835e-23
3.43573e-17
7.18656e-12
9.3859e-07
-1.17573e-26
1.26835e-23
3.43573e-17
7.18656e-12
9.3859e-07
-1.17544e-26
1.28222e-23
3.43728e-17
7.18842e-12
9.38713e-07
-1.17528e-26
1.28969e-23
3.43805e-17
7.18934e-12
9.38776e-07
-1.17416e-26
1.34153e-23
3.44357e-17
7.19589e-12
9.39205e-07
-1.17373e-26
1.36068e-23
3.44543e-17
7.19809e-12
9.39356e-07
-1.17093e-26
1.4779e-23
3.4576e-17
7.21248e-12
9.40285e-07
-1.17004e-26
1.51256e-23
3.46094e-17
7.21643e-12
9.40557e-07
-1.16772e-26
1.52404e-23
3.47654e-17
7.24044e-12
9.41904e-07
-1.1672e-26
1.50932e-23
3.47852e-17
7.2445e-12
9.42163e-07
-1.23874e-26
-1.96698e-23
3.39795e-17
7.24842e-12
9.39396e-07
0.000231158
3.61029e-05
8.13924e-07
1.79474e-09
-6.96192e-12
2.852e-14
3.59977e-14
3.61478e-14
3.61802e-14
3.61858e-14
3.61886e-14
3.62064e-14
3.62971e-14
3.64067e-14
3.73088e-14
3.80778e-14
4.61431e-14
5.05002e-14
1.61236e-13
1.88456e-13
0.000256988
4.09245e-05
9.8231e-07
2.96126e-09
-6.15745e-12
2.80645e-14
3.59926e-14
3.61464e-14
3.61795e-14
3.61852e-14
3.61869e-14
3.62013e-14
3.6294e-14
3.64056e-14
3.73231e-14
3.81013e-14
4.62728e-14
5.06587e-14
1.62679e-13
1.9022e-13
0.00025718
4.09494e-05
9.82535e-07
2.96369e-09
-6.14954e-12
2.80672e-14
3.59925e-14
3.61464e-14
3.61795e-14
3.61853e-14
3.61869e-14
3.62017e-14
3.62944e-14
3.6406e-14
3.73239e-14
3.81022e-14
4.62753e-14
5.06614e-14
1.62694e-13
1.90234e-13
0.000257769
4.09749e-05
9.79188e-07
2.94707e-09
-6.10362e-12
2.81213e-14
3.59924e-14
3.61464e-14
3.61796e-14
3.61854e-14
3.61872e-14
3.62031e-14
3.6296e-14
3.64078e-14
3.73267e-14
3.81056e-14
4.62838e-14
5.06704e-14
1.62739e-13
1.90274e-13
0.000257559
4.09328e-05
9.77457e-07
2.93515e-09
-6.11164e-12
2.81252e-14
3.59924e-14
3.61464e-14
3.61796e-14
3.61854e-14
3.61872e-14
3.62031e-14
3.62961e-14
3.64078e-14
3.73268e-14
3.81057e-14
4.6284e-14
5.06707e-14
1.6274e-13
1.90275e-13
0.000256938
4.07892e-05
9.71239e-07
2.89294e-09
-6.13733e-12
2.81409e-14
3.59924e-14
3.61464e-14
3.61796e-14
3.61854e-14
3.61872e-14
3.62032e-14
3.62962e-14
3.64079e-14
3.7327e-14
3.81059e-14
4.62844e-14
5.06711e-14
1.62741e-13
1.90276e-13
0.000256818
4.07654e-05
9.70294e-07
2.88636e-09
-6.14258e-12
2.81423e-14
3.59924e-14
3.61464e-14
3.61796e-14
3.61854e-14
3.61873e-14
3.62032e-14
3.62962e-14
3.64079e-14
3.7327e-14
3.81059e-14
4.62845e-14
5.06711e-14
1.62741e-13
1.90276e-13
0.000256529
4.06998e-05
9.67518e-07
2.86726e-09
-6.15667e-12
2.8147e-14
3.59924e-14
3.61464e-14
3.61796e-14
3.61854e-14
3.61873e-14
3.62032e-14
3.62962e-14
3.64079e-14
3.7327e-14
3.81059e-14
4.62845e-14
5.06712e-14
1.62741e-13
1.90276e-13
0.000256482
4.06905e-05
9.67146e-07
2.86466e-09
-6.15888e-12
2.81474e-14
3.59924e-14
3.61464e-14
3.61796e-14
3.61854e-14
3.61873e-14
3.62032e-14
3.62962e-14
3.64079e-14
3.7327e-14
3.81059e-14
4.62845e-14
5.06712e-14
1.62741e-13
1.90276e-13
0.000256404
4.06727e-05
9.6639e-07
2.85943e-09
-6.16297e-12
2.81484e-14
3.59924e-14
3.61464e-14
3.61796e-14
3.61854e-14
3.61872e-14
3.62032e-14
3.62962e-14
3.64079e-14
3.7327e-14
3.81059e-14
4.62845e-14
5.06711e-14
1.62741e-13
1.90276e-13
0.000256404
4.06727e-05
9.6639e-07
2.85943e-09
-6.16297e-12
2.81484e-14
3.59924e-14
3.61464e-14
3.61796e-14
3.61854e-14
3.61872e-14
3.62032e-14
3.62962e-14
3.64079e-14
3.7327e-14
3.81059e-14
4.62845e-14
5.06711e-14
1.62741e-13
1.90276e-13
0.000256482
4.06905e-05
9.67146e-07
2.86466e-09
-6.15888e-12
2.81474e-14
3.59924e-14
3.61464e-14
3.61796e-14
3.61854e-14
3.61873e-14
3.62032e-14
3.62962e-14
3.64079e-14
3.7327e-14
3.81059e-14
4.62845e-14
5.06712e-14
1.62741e-13
1.90276e-13
0.000256529
4.06998e-05
9.67518e-07
2.86726e-09
-6.15667e-12
2.8147e-14
3.59924e-14
3.61464e-14
3.61796e-14
3.61854e-14
3.61873e-14
3.62032e-14
3.62962e-14
3.64079e-14
3.7327e-14
3.81059e-14
4.62845e-14
5.06712e-14
1.62741e-13
1.90276e-13
0.000256818
4.07654e-05
9.70294e-07
2.88636e-09
-6.14258e-12
2.81423e-14
3.59924e-14
3.61464e-14
3.61796e-14
3.61854e-14
3.61873e-14
3.62032e-14
3.62962e-14
3.64079e-14
3.7327e-14
3.81059e-14
4.62845e-14
5.06711e-14
1.62741e-13
1.90276e-13
0.000256938
4.07892e-05
9.71239e-07
2.89294e-09
-6.13733e-12
2.81409e-14
3.59924e-14
3.61464e-14
3.61796e-14
3.61854e-14
3.61872e-14
3.62032e-14
3.62962e-14
3.64079e-14
3.7327e-14
3.81059e-14
4.62844e-14
5.06711e-14
1.62741e-13
1.90276e-13
0.000257559
4.09328e-05
9.77457e-07
2.93515e-09
-6.11164e-12
2.81252e-14
3.59924e-14
3.61464e-14
3.61796e-14
3.61854e-14
3.61872e-14
3.62031e-14
3.62961e-14
3.64078e-14
3.73268e-14
3.81057e-14
4.6284e-14
5.06707e-14
1.6274e-13
1.90275e-13
0.000257769
4.09749e-05
9.79188e-07
2.94707e-09
-6.10362e-12
2.81213e-14
3.59924e-14
3.61464e-14
3.61796e-14
3.61854e-14
3.61872e-14
3.62031e-14
3.6296e-14
3.64078e-14
3.73267e-14
3.81056e-14
4.62838e-14
5.06704e-14
1.62739e-13
1.90274e-13
0.00025718
4.09494e-05
9.82535e-07
2.96369e-09
-6.14954e-12
2.80672e-14
3.59925e-14
3.61464e-14
3.61795e-14
3.61853e-14
3.61869e-14
3.62017e-14
3.62944e-14
3.6406e-14
3.73239e-14
3.81022e-14
4.62753e-14
5.06614e-14
1.62694e-13
1.90234e-13
0.000256988
4.09245e-05
9.8231e-07
2.96126e-09
-6.15745e-12
2.80645e-14
3.59926e-14
3.61464e-14
3.61795e-14
3.61852e-14
3.61869e-14
3.62013e-14
3.6294e-14
3.64056e-14
3.73231e-14
3.81013e-14
4.62728e-14
5.06587e-14
1.62679e-13
1.9022e-13
0.000231158
3.61029e-05
8.13924e-07
1.79474e-09
-6.96192e-12
2.852e-14
3.59977e-14
3.61478e-14
3.61802e-14
3.61858e-14
3.61886e-14
3.62064e-14
3.62971e-14
3.64067e-14
3.73088e-14
3.80778e-14
4.61431e-14
5.05002e-14