/*--------------------------------*- C++ -*----------------------------------*\
  =========                 |
  \\      /  F ield         | OpenFOAM: The Open Source CFD Toolbox
   \\    /   O peration     | Website:  https://openfoam.org
    \\  /    A nd           | Version:  8
     \\/     M anipulation  |
\*---------------------------------------------------------------------------*/
FoamFile
{
    version     2.0;
    format      ascii;
    class       volScalarField;
    location    "3.2";
    object      H2;
}
// * * * * * * * * * * * * * * * * * * * * * * * * * * * * * * * * * * * * * //

dimensions      [0 1 -1 0 0 0 0];

internalField   nonuniform List<scalar> 
180000
(
-1.06766e-26
-1.39206e-22
3.54692e-19
9.14611e-14
3.32954e-09
-1.03869e-26
-1.17453e-22
1.19386e-18
1.15257e-13
3.86322e-09
-1.03948e-26
-1.17348e-22
1.20251e-18
1.15527e-13
3.86884e-09
-1.04224e-26
-1.17085e-22
1.22822e-18
1.16352e-13
3.88599e-09
-1.0428e-26
-1.1724e-22
1.22389e-18
1.16233e-13
3.88286e-09
-1.04454e-26
-1.17731e-22
1.21001e-18
1.15853e-13
3.87319e-09
-1.04479e-26
-1.17813e-22
1.20747e-18
1.15781e-13
3.87134e-09
-1.04545e-26
-1.18023e-22
1.20111e-18
1.15603e-13
3.8668e-09
-1.04554e-26
-1.18054e-22
1.20015e-18
1.15575e-13
3.86609e-09
-1.04571e-26
-1.18107e-22
1.19851e-18
1.15529e-13
3.86489e-09
-1.04571e-26
-1.18107e-22
1.19851e-18
1.15529e-13
3.86489e-09
-1.04554e-26
-1.18054e-22
1.20015e-18
1.15575e-13
3.86609e-09
-1.04545e-26
-1.18023e-22
1.20111e-18
1.15603e-13
3.8668e-09
-1.04479e-26
-1.17813e-22
1.20747e-18
1.15781e-13
3.87134e-09
-1.04454e-26
-1.17731e-22
1.21001e-18
1.15853e-13
3.87319e-09
-1.0428e-26
-1.1724e-22
1.22389e-18
1.16233e-13
3.88286e-09
-1.04224e-26
-1.17085e-22
1.22822e-18
1.16352e-13
3.88599e-09
-1.03948e-26
-1.17348e-22
1.20251e-18
1.15527e-13
3.86884e-09
-1.03869e-26
-1.17453e-22
1.19386e-18
1.15257e-13
3.86322e-09
-1.06766e-26
-1.39206e-22
3.54692e-19
9.14611e-14
3.32954e-09
-1.06766e-26
-1.39205e-22
3.54977e-19
9.20658e-14
4.39014e-09
-1.03869e-26
-1.17453e-22
1.1941e-18
1.159e-13
5.00278e-09
-1.03948e-26
-1.17348e-22
1.20275e-18
1.16171e-13
5.00835e-09
-1.04224e-26
-1.17085e-22
1.22845e-18
1.16993e-13
5.02413e-09
-1.04281e-26
-1.1724e-22
1.22413e-18
1.16873e-13
5.01991e-09
-1.04454e-26
-1.1773e-22
1.21024e-18
1.16491e-13
5.00657e-09
-1.0448e-26
-1.17813e-22
1.2077e-18
1.16418e-13
5.00411e-09
-1.04545e-26
-1.18022e-22
1.20135e-18
1.16239e-13
4.99789e-09
-1.04555e-26
-1.18053e-22
1.20039e-18
1.16211e-13
4.99693e-09
-1.04571e-26
-1.18106e-22
1.19874e-18
1.16164e-13
4.99526e-09
-1.04571e-26
-1.18106e-22
1.19874e-18
1.16164e-13
4.99526e-09
-1.04555e-26
-1.18053e-22
1.20039e-18
1.16211e-13
4.99693e-09
-1.04545e-26
-1.18022e-22
1.20135e-18
1.16239e-13
4.99789e-09
-1.0448e-26
-1.17813e-22
1.2077e-18
1.16418e-13
5.00411e-09
-1.04454e-26
-1.1773e-22
1.21024e-18
1.16491e-13
5.00657e-09
-1.04281e-26
-1.1724e-22
1.22413e-18
1.16873e-13
5.01991e-09
-1.04224e-26
-1.17085e-22
1.22845e-18
1.16993e-13
5.02413e-09
-1.03948e-26
-1.17348e-22
1.20275e-18
1.16171e-13
5.00835e-09
-1.03869e-26
-1.17453e-22
1.1941e-18
1.159e-13
5.00278e-09
-1.06766e-26
-1.39205e-22
3.54976e-19
9.20658e-14
4.39014e-09
-1.06766e-26
-1.39197e-22
3.58564e-19
9.73411e-14
1.2506e-08
-1.03869e-26
-1.17446e-22
1.19772e-18
1.2142e-13
1.35434e-08
-1.03949e-26
-1.17341e-22
1.20637e-18
1.21688e-13
1.35478e-08
-1.04224e-26
-1.17078e-22
1.23204e-18
1.22492e-13
1.35536e-08
-1.04281e-26
-1.17233e-22
1.22772e-18
1.22366e-13
1.3543e-08
-1.04454e-26
-1.17724e-22
1.21381e-18
1.21964e-13
1.35083e-08
-1.0448e-26
-1.17806e-22
1.21127e-18
1.21889e-13
1.35022e-08
-1.04545e-26
-1.18015e-22
1.20491e-18
1.21701e-13
1.34861e-08
-1.04555e-26
-1.18046e-22
1.20395e-18
1.21672e-13
1.34837e-08
-1.04571e-26
-1.181e-22
1.2023e-18
1.21622e-13
1.34793e-08
-1.04571e-26
-1.181e-22
1.2023e-18
1.21622e-13
1.34793e-08
-1.04555e-26
-1.18046e-22
1.20395e-18
1.21672e-13
1.34837e-08
-1.04545e-26
-1.18015e-22
1.20491e-18
1.21701e-13
1.34861e-08
-1.0448e-26
-1.17806e-22
1.21127e-18
1.21889e-13
1.35022e-08
-1.04454e-26
-1.17724e-22
1.21381e-18
1.21964e-13
1.35083e-08
-1.04281e-26
-1.17233e-22
1.22772e-18
1.22366e-13
1.3543e-08
-1.04224e-26
-1.17078e-22
1.23204e-18
1.22492e-13
1.35536e-08
-1.03949e-26
-1.17341e-22
1.20637e-18
1.21688e-13
1.35478e-08
-1.03869e-26
-1.17446e-22
1.19772e-18
1.2142e-13
1.35434e-08
-1.06766e-26
-1.39197e-22
3.58564e-19
9.73411e-14
1.2506e-08
-1.06766e-26
-1.39173e-22
3.75504e-19
1.18685e-13
4.03885e-08
-1.03869e-26
-1.17425e-22
1.21494e-18
1.43433e-13
4.23908e-08
-1.03949e-26
-1.17319e-22
1.22357e-18
1.43689e-13
4.23905e-08
-1.04224e-26
-1.17057e-22
1.24914e-18
1.44426e-13
4.23694e-08
-1.04281e-26
-1.17211e-22
1.2448e-18
1.44281e-13
4.23428e-08
-1.04454e-26
-1.17702e-22
1.23082e-18
1.43815e-13
4.22558e-08
-1.0448e-26
-1.17785e-22
1.22826e-18
1.43729e-13
4.22407e-08
-1.04545e-26
-1.17994e-22
1.22187e-18
1.43511e-13
4.22002e-08
-1.04555e-26
-1.18025e-22
1.22091e-18
1.43478e-13
4.21942e-08
-1.04571e-26
-1.18078e-22
1.21925e-18
1.43421e-13
4.21829e-08
-1.04571e-26
-1.18078e-22
1.21925e-18
1.43421e-13
4.21829e-08
-1.04555e-26
-1.18025e-22
1.22091e-18
1.43478e-13
4.21942e-08
-1.04545e-26
-1.17994e-22
1.22187e-18
1.43511e-13
4.22002e-08
-1.0448e-26
-1.17785e-22
1.22826e-18
1.43729e-13
4.22407e-08
-1.04454e-26
-1.17702e-22
1.23082e-18
1.43815e-13
4.22558e-08
-1.04281e-26
-1.17211e-22
1.2448e-18
1.44281e-13
4.23428e-08
-1.04224e-26
-1.17057e-22
1.24914e-18
1.44426e-13
4.23694e-08
-1.03949e-26
-1.17319e-22
1.22357e-18
1.43689e-13
4.23905e-08
-1.03869e-26
-1.17425e-22
1.21494e-18
1.43433e-13
4.23908e-08
-1.06766e-26
-1.39173e-22
3.75503e-19
1.18685e-13
4.03885e-08
-1.06765e-26
-1.39111e-22
4.27413e-19
1.74525e-13
1.00178e-07
-1.03869e-26
-1.17366e-22
1.26744e-18
2.00387e-13
1.03434e-07
-1.03948e-26
-1.1726e-22
1.27603e-18
2.00613e-13
1.03422e-07
-1.04224e-26
-1.16998e-22
1.30129e-18
2.01179e-13
1.03351e-07
-1.0428e-26
-1.17153e-22
1.29689e-18
2.00994e-13
1.03299e-07
-1.04454e-26
-1.17644e-22
1.2827e-18
2.00386e-13
1.03133e-07
-1.04479e-26
-1.17727e-22
1.28012e-18
2.00277e-13
1.03103e-07
-1.04545e-26
-1.17936e-22
1.27364e-18
1.99994e-13
1.03025e-07
-1.04554e-26
-1.17967e-22
1.27266e-18
1.99951e-13
1.03013e-07
-1.04571e-26
-1.1802e-22
1.27097e-18
1.99875e-13
1.02992e-07
-1.04571e-26
-1.1802e-22
1.27097e-18
1.99875e-13
1.02992e-07
-1.04554e-26
-1.17967e-22
1.27266e-18
1.99951e-13
1.03013e-07
-1.04545e-26
-1.17936e-22
1.27364e-18
1.99994e-13
1.03025e-07
-1.04479e-26
-1.17727e-22
1.28012e-18
2.00277e-13
1.03103e-07
-1.04454e-26
-1.17644e-22
1.2827e-18
2.00386e-13
1.03133e-07
-1.0428e-26
-1.17153e-22
1.29689e-18
2.00994e-13
1.03299e-07
-1.04224e-26
-1.16998e-22
1.30129e-18
2.01179e-13
1.03351e-07
-1.03948e-26
-1.1726e-22
1.27603e-18
2.00613e-13
1.03422e-07
-1.03869e-26
-1.17366e-22
1.26744e-18
2.00387e-13
1.03434e-07
-1.06765e-26
-1.39111e-22
4.27412e-19
1.74525e-13
1.00178e-07
-1.06764e-26
-1.38969e-22
5.49487e-19
2.86481e-13
1.97332e-07
-1.03868e-26
-1.17229e-22
1.39018e-18
3.13628e-13
2.01666e-07
-1.03947e-26
-1.17123e-22
1.39866e-18
3.13792e-13
2.01634e-07
-1.04222e-26
-1.16862e-22
1.4232e-18
3.14019e-13
2.01472e-07
-1.04279e-26
-1.17017e-22
1.41867e-18
3.13761e-13
2.0139e-07
-1.04452e-26
-1.17508e-22
1.40405e-18
3.12902e-13
2.01124e-07
-1.04478e-26
-1.17591e-22
1.40139e-18
3.12753e-13
2.01077e-07
-1.04544e-26
-1.178e-22
1.39471e-18
3.12354e-13
2.00952e-07
-1.04553e-26
-1.17831e-22
1.3937e-18
3.12295e-13
2.00933e-07
-1.0457e-26
-1.17885e-22
1.39196e-18
3.12186e-13
2.00897e-07
-1.0457e-26
-1.17885e-22
1.39196e-18
3.12186e-13
2.00897e-07
-1.04553e-26
-1.17831e-22
1.3937e-18
3.12295e-13
2.00933e-07
-1.04544e-26
-1.178e-22
1.39471e-18
3.12354e-13
2.00952e-07
-1.04478e-26
-1.17591e-22
1.40139e-18
3.12753e-13
2.01077e-07
-1.04452e-26
-1.17508e-22
1.40405e-18
3.12902e-13
2.01124e-07
-1.04279e-26
-1.17017e-22
1.41867e-18
3.13761e-13
2.0139e-07
-1.04222e-26
-1.16862e-22
1.4232e-18
3.14019e-13
2.01472e-07
-1.03947e-26
-1.17123e-22
1.39866e-18
3.13792e-13
2.01634e-07
-1.03868e-26
-1.17229e-22
1.39018e-18
3.13628e-13
2.01666e-07
-1.06764e-26
-1.38969e-22
5.49487e-19
2.86481e-13
1.97332e-07
-1.0676e-26
-1.38675e-22
7.90666e-19
4.76403e-13
3.32161e-07
-1.03865e-26
-1.16941e-22
1.63143e-18
5.04541e-13
3.37077e-07
-1.03944e-26
-1.16836e-22
1.63968e-18
5.04596e-13
3.3701e-07
-1.04219e-26
-1.16577e-22
1.66281e-18
5.0423e-13
3.36691e-07
-1.04276e-26
-1.16732e-22
1.65805e-18
5.0386e-13
3.36572e-07
-1.04449e-26
-1.17225e-22
1.64259e-18
5.02607e-13
3.36183e-07
-1.04475e-26
-1.17308e-22
1.63981e-18
5.02396e-13
3.36116e-07
-1.04541e-26
-1.17518e-22
1.63275e-18
5.01817e-13
3.35933e-07
-1.0455e-26
-1.17549e-22
1.63169e-18
5.01732e-13
3.35906e-07
-1.04567e-26
-1.17602e-22
1.62984e-18
5.01572e-13
3.35854e-07
-1.04567e-26
-1.17602e-22
1.62984e-18
5.01572e-13
3.35854e-07
-1.0455e-26
-1.17549e-22
1.63169e-18
5.01732e-13
3.35906e-07
-1.04541e-26
-1.17518e-22
1.63275e-18
5.01817e-13
3.35933e-07
-1.04475e-26
-1.17308e-22
1.63981e-18
5.02396e-13
3.36116e-07
-1.04449e-26
-1.17225e-22
1.64259e-18
5.02607e-13
3.36183e-07
-1.04276e-26
-1.16732e-22
1.65805e-18
5.0386e-13
3.36572e-07
-1.04219e-26
-1.16577e-22
1.66281e-18
5.0423e-13
3.36691e-07
-1.03944e-26
-1.16836e-22
1.63968e-18
5.04596e-13
3.3701e-07
-1.03865e-26
-1.16941e-22
1.63143e-18
5.04541e-13
3.37077e-07
-1.0676e-26
-1.38675e-22
7.90666e-19
4.76403e-13
3.32161e-07
-1.06753e-26
-1.38118e-22
1.21323e-18
7.6548e-13
5.03428e-07
-1.03858e-26
-1.16395e-22
2.05234e-18
7.93763e-13
5.08281e-07
-1.03937e-26
-1.1629e-22
2.06016e-18
7.93646e-13
5.08162e-07
-1.04213e-26
-1.16035e-22
2.0808e-18
7.92331e-13
5.07585e-07
-1.0427e-26
-1.16191e-22
2.07565e-18
7.91801e-13
5.07421e-07
-1.04443e-26
-1.16686e-22
2.05878e-18
7.89973e-13
5.06877e-07
-1.04469e-26
-1.16769e-22
2.05579e-18
7.89673e-13
5.06784e-07
-1.04534e-26
-1.1698e-22
2.04809e-18
7.88833e-13
5.06531e-07
-1.04544e-26
-1.17012e-22
2.04694e-18
7.88711e-13
5.06493e-07
-1.0456e-26
-1.17065e-22
2.04491e-18
7.88476e-13
5.06421e-07
-1.0456e-26
-1.17065e-22
2.04491e-18
7.88476e-13
5.06421e-07
-1.04544e-26
-1.17012e-22
2.04694e-18
7.88711e-13
5.06493e-07
-1.04534e-26
-1.1698e-22
2.04809e-18
7.88833e-13
5.06531e-07
-1.04469e-26
-1.16769e-22
2.05579e-18
7.89673e-13
5.06784e-07
-1.04443e-26
-1.16686e-22
2.05878e-18
7.89973e-13
5.06877e-07
-1.0427e-26
-1.16191e-22
2.07565e-18
7.91801e-13
5.07421e-07
-1.04213e-26
-1.16035e-22
2.0808e-18
7.92331e-13
5.07585e-07
-1.03937e-26
-1.1629e-22
2.06016e-18
7.93646e-13
5.08162e-07
-1.03858e-26
-1.16395e-22
2.05234e-18
7.93763e-13
5.08281e-07
-1.06753e-26
-1.38118e-22
1.21323e-18
7.6548e-13
5.03428e-07
-1.0674e-26
-1.37141e-22
1.89237e-18
1.17424e-12
7.09893e-07
-1.03846e-26
-1.15437e-22
2.72644e-18
1.20121e-12
7.13937e-07
-1.03925e-26
-1.15332e-22
2.73357e-18
1.20084e-12
7.13747e-07
-1.042e-26
-1.15086e-22
2.75013e-18
1.19811e-12
7.12781e-07
-1.04257e-26
-1.15243e-22
2.74438e-18
1.19736e-12
7.12561e-07
-1.04431e-26
-1.15742e-22
2.7253e-18
1.19473e-12
7.11817e-07
-1.04456e-26
-1.15826e-22
2.72197e-18
1.19431e-12
7.11694e-07
-1.04522e-26
-1.16038e-22
2.71327e-18
1.1931e-12
7.11349e-07
-1.04531e-26
-1.1607e-22
2.71198e-18
1.19293e-12
7.11299e-07
-1.04548e-26
-1.16124e-22
2.70967e-18
1.19259e-12
7.112e-07
-1.04548e-26
-1.16124e-22
2.70967e-18
1.19259e-12
7.112e-07
-1.04531e-26
-1.1607e-22
2.71198e-18
1.19293e-12
7.11299e-07
-1.04522e-26
-1.16038e-22
2.71327e-18
1.1931e-12
7.11349e-07
-1.04456e-26
-1.15826e-22
2.72197e-18
1.19431e-12
7.11694e-07
-1.04431e-26
-1.15742e-22
2.7253e-18
1.19473e-12
7.11817e-07
-1.04257e-26
-1.15243e-22
2.74438e-18
1.19736e-12
7.12561e-07
-1.042e-26
-1.15086e-22
2.75013e-18
1.19811e-12
7.12781e-07
-1.03925e-26
-1.15332e-22
2.73357e-18
1.20084e-12
7.13747e-07
-1.03846e-26
-1.15436e-22
2.72645e-18
1.20121e-12
7.13937e-07
-1.0674e-26
-1.37141e-22
1.89237e-18
1.17424e-12
7.09893e-07
-1.06717e-26
-1.35535e-22
2.91562e-18
1.72227e-12
9.49894e-07
-1.03823e-26
-1.13861e-22
3.73904e-18
1.7458e-12
9.52254e-07
-1.03902e-26
-1.13758e-22
3.74509e-18
1.74507e-12
9.51969e-07
-1.04178e-26
-1.13526e-22
3.75539e-18
1.74031e-12
9.50459e-07
-1.04235e-26
-1.13684e-22
3.74875e-18
1.73927e-12
9.50171e-07
-1.04408e-26
-1.1419e-22
3.72637e-18
1.73556e-12
9.49169e-07
-1.04434e-26
-1.14275e-22
3.72256e-18
1.73498e-12
9.49009e-07
-1.045e-26
-1.14491e-22
3.71237e-18
1.73329e-12
9.48549e-07
-1.04509e-26
-1.14523e-22
3.71088e-18
1.73305e-12
9.48482e-07
-1.04526e-26
-1.14578e-22
3.70814e-18
1.73258e-12
9.48351e-07
-1.04526e-26
-1.14578e-22
3.70814e-18
1.73258e-12
9.48351e-07
-1.04509e-26
-1.14523e-22
3.71088e-18
1.73305e-12
9.48482e-07
-1.045e-26
-1.14491e-22
3.71237e-18
1.73329e-12
9.48549e-07
-1.04434e-26
-1.14275e-22
3.72256e-18
1.73498e-12
9.49009e-07
-1.04408e-26
-1.1419e-22
3.72637e-18
1.73556e-12
9.49169e-07
-1.04235e-26
-1.13684e-22
3.74875e-18
1.73927e-12
9.50171e-07
-1.04178e-26
-1.13526e-22
3.75539e-18
1.74031e-12
9.50459e-07
-1.03902e-26
-1.13758e-22
3.74509e-18
1.74507e-12
9.51969e-07
-1.03823e-26
-1.13861e-22
3.73904e-18
1.7458e-12
9.52254e-07
-1.06717e-26
-1.35535e-22
2.91562e-18
1.72227e-12
9.49894e-07
-1.06678e-26
-1.33089e-22
4.28184e-18
2.26883e-12
9.47611e-07
-1.03785e-26
-1.11465e-22
5.08898e-18
2.28892e-12
9.50029e-07
-1.03864e-26
-1.11365e-22
5.09359e-18
2.28784e-12
9.49748e-07
-1.04141e-26
-1.11153e-22
5.09547e-18
2.28108e-12
9.4826e-07
-1.04198e-26
-1.11315e-22
5.08766e-18
2.27975e-12
9.47975e-07
-1.04371e-26
-1.11831e-22
5.0609e-18
2.27497e-12
9.46983e-07
-1.04397e-26
-1.11917e-22
5.05645e-18
2.27423e-12
9.46825e-07
-1.04463e-26
-1.12138e-22
5.04429e-18
2.27206e-12
9.46369e-07
-1.04472e-26
-1.1217e-22
5.04253e-18
2.27175e-12
9.46303e-07
-1.04489e-26
-1.12227e-22
5.03923e-18
2.27114e-12
9.46173e-07
-1.04489e-26
-1.12227e-22
5.03923e-18
2.27114e-12
9.46173e-07
-1.04472e-26
-1.1217e-22
5.04253e-18
2.27175e-12
9.46303e-07
-1.04463e-26
-1.12138e-22
5.04429e-18
2.27206e-12
9.46369e-07
-1.04397e-26
-1.11917e-22
5.05645e-18
2.27423e-12
9.46825e-07
-1.04371e-26
-1.11831e-22
5.0609e-18
2.27497e-12
9.46983e-07
-1.04198e-26
-1.11315e-22
5.08766e-18
2.27975e-12
9.47975e-07
-1.04141e-26
-1.11153e-22
5.09547e-18
2.28108e-12
9.4826e-07
-1.03864e-26
-1.11365e-22
5.09359e-18
2.28784e-12
9.49748e-07
-1.03785e-26
-1.11465e-22
5.08898e-18
2.28892e-12
9.50029e-07
-1.06678e-26
-1.33089e-22
4.28184e-18
2.26883e-12
9.47611e-07
-1.06616e-26
-1.29595e-22
5.98984e-18
2.8139e-12
9.45399e-07
-1.03726e-26
-1.08045e-22
6.77507e-18
2.83057e-12
9.47873e-07
-1.03805e-26
-1.0795e-22
6.77787e-18
2.82914e-12
9.47595e-07
-1.04082e-26
-1.07767e-22
6.76919e-18
2.82039e-12
9.46127e-07
-1.04139e-26
-1.07933e-22
6.75994e-18
2.81878e-12
9.45845e-07
-1.04313e-26
-1.08463e-22
6.72773e-18
2.81294e-12
9.44864e-07
-1.04339e-26
-1.08552e-22
6.72248e-18
2.81204e-12
9.44707e-07
-1.04405e-26
-1.08779e-22
6.70787e-18
2.80939e-12
9.44256e-07
-1.04414e-26
-1.08812e-22
6.70578e-18
2.80902e-12
9.4419e-07
-1.04431e-26
-1.08871e-22
6.70179e-18
2.80827e-12
9.44062e-07
-1.04431e-26
-1.08871e-22
6.70179e-18
2.80827e-12
9.44062e-07
-1.04414e-26
-1.08812e-22
6.70578e-18
2.80902e-12
9.4419e-07
-1.04405e-26
-1.08779e-22
6.70787e-18
2.80939e-12
9.44256e-07
-1.04339e-26
-1.08552e-22
6.72248e-18
2.81204e-12
9.44707e-07
-1.04313e-26
-1.08463e-22
6.72773e-18
2.81294e-12
9.44864e-07
-1.04139e-26
-1.07933e-22
6.75993e-18
2.81878e-12
9.45845e-07
-1.04082e-26
-1.07767e-22
6.76919e-18
2.82039e-12
9.46127e-07
-1.03805e-26
-1.0795e-22
6.77787e-18
2.82914e-12
9.47595e-07
-1.03726e-26
-1.08045e-22
6.77507e-18
2.83057e-12
9.47873e-07
-1.06616e-26
-1.29596e-22
5.98984e-18
2.8139e-12
9.45399e-07
-1.06524e-26
-1.24847e-22
8.03835e-18
3.35742e-12
9.4325e-07
-1.03637e-26
-1.034e-22
8.79602e-18
3.37067e-12
9.45777e-07
-1.03716e-26
-1.0331e-22
8.79666e-18
3.3689e-12
9.45504e-07
-1.03994e-26
-1.03168e-22
8.7753e-18
3.35818e-12
9.44056e-07
-1.04051e-26
-1.03339e-22
8.76432e-18
3.35628e-12
9.43776e-07
-1.04226e-26
-1.03889e-22
8.72561e-18
3.3494e-12
9.42804e-07
-1.04252e-26
-1.03981e-22
8.71942e-18
3.34834e-12
9.42649e-07
-1.04318e-26
-1.04217e-22
8.70188e-18
3.34521e-12
9.42202e-07
-1.04327e-26
-1.04252e-22
8.6994e-18
3.34478e-12
9.42137e-07
-1.04344e-26
-1.04313e-22
8.69457e-18
3.34389e-12
9.4201e-07
-1.04344e-26
-1.04313e-22
8.69457e-18
3.34389e-12
9.4201e-07
-1.04327e-26
-1.04252e-22
8.6994e-18
3.34478e-12
9.42137e-07
-1.04318e-26
-1.04217e-22
8.70188e-18
3.34521e-12
9.42202e-07
-1.04252e-26
-1.03981e-22
8.71942e-18
3.34834e-12
9.42649e-07
-1.04226e-26
-1.03889e-22
8.72561e-18
3.3494e-12
9.42804e-07
-1.04051e-26
-1.03339e-22
8.76432e-18
3.35628e-12
9.43776e-07
-1.03994e-26
-1.03168e-22
8.7753e-18
3.35818e-12
9.44056e-07
-1.03716e-26
-1.0331e-22
8.79666e-18
3.3689e-12
9.45504e-07
-1.03637e-26
-1.034e-22
8.79602e-18
3.37067e-12
9.45777e-07
-1.06524e-26
-1.24847e-22
8.03835e-18
3.35742e-12
9.4325e-07
-1.06393e-26
-1.18637e-22
1.0426e-17
3.89929e-12
9.4116e-07
-1.0351e-26
-9.73271e-23
1.11504e-17
3.90914e-12
9.43739e-07
-1.03589e-26
-9.7246e-23
1.11486e-17
3.90703e-12
9.43469e-07
-1.03868e-26
-9.71564e-23
1.11124e-17
3.89437e-12
9.4204e-07
-1.03926e-26
-9.73339e-23
1.10995e-17
3.89219e-12
9.41764e-07
-1.04101e-26
-9.79107e-23
1.10532e-17
3.88426e-12
9.40801e-07
-1.04127e-26
-9.8006e-23
1.10459e-17
3.88305e-12
9.40647e-07
-1.04194e-26
-9.82538e-23
1.1025e-17
3.87945e-12
9.40204e-07
-1.04203e-26
-9.829e-23
1.10221e-17
3.87895e-12
9.4014e-07
-1.0422e-26
-9.83544e-23
1.10163e-17
3.87793e-12
9.40014e-07
-1.0422e-26
-9.83544e-23
1.10163e-17
3.87793e-12
9.40014e-07
-1.04203e-26
-9.829e-23
1.10221e-17
3.87895e-12
9.4014e-07
-1.04194e-26
-9.82538e-23
1.1025e-17
3.87945e-12
9.40204e-07
-1.04127e-26
-9.8006e-23
1.10459e-17
3.88305e-12
9.40647e-07
-1.04101e-26
-9.79107e-23
1.10532e-17
3.88426e-12
9.40801e-07
-1.03926e-26
-9.73339e-23
1.10995e-17
3.89219e-12
9.41764e-07
-1.03868e-26
-9.71564e-23
1.11124e-17
3.89437e-12
9.4204e-07
-1.03589e-26
-9.7246e-23
1.11486e-17
3.90703e-12
9.43469e-07
-1.0351e-26
-9.73271e-23
1.11504e-17
3.90914e-12
9.43739e-07
-1.06393e-26
-1.18637e-22
1.0426e-17
3.89929e-12
9.4116e-07
-1.06211e-26
-1.10759e-22
1.31513e-17
4.43944e-12
9.39126e-07
-1.03334e-26
-8.96277e-23
1.38369e-17
4.4459e-12
9.41754e-07
-1.03413e-26
-8.95571e-23
1.38321e-17
4.44346e-12
9.41487e-07
-1.03694e-26
-8.95344e-23
1.37792e-17
4.42888e-12
9.40077e-07
-1.03752e-26
-8.97206e-23
1.3764e-17
4.42642e-12
9.39803e-07
-1.03928e-26
-9.03305e-23
1.37091e-17
4.41745e-12
9.38849e-07
-1.03954e-26
-9.04305e-23
1.37006e-17
4.41609e-12
9.38696e-07
-1.04021e-26
-9.06932e-23
1.36758e-17
4.41202e-12
9.38258e-07
-1.04031e-26
-9.07314e-23
1.36723e-17
4.41146e-12
9.38194e-07
-1.04048e-26
-9.08e-23
1.36654e-17
4.4103e-12
9.38069e-07
-1.04048e-26
-9.08e-23
1.36654e-17
4.4103e-12
9.38069e-07
-1.04031e-26
-9.07314e-23
1.36723e-17
4.41146e-12
9.38194e-07
-1.04021e-26
-9.06932e-23
1.36758e-17
4.41202e-12
9.38258e-07
-1.03954e-26
-9.04305e-23
1.37006e-17
4.41609e-12
9.38696e-07
-1.03928e-26
-9.03305e-23
1.37091e-17
4.41745e-12
9.38849e-07
-1.03752e-26
-8.97206e-23
1.3764e-17
4.42642e-12
9.39803e-07
-1.03694e-26
-8.95344e-23
1.37792e-17
4.42888e-12
9.40077e-07
-1.03413e-26
-8.95571e-23
1.38321e-17
4.44346e-12
9.41487e-07
-1.03334e-26
-8.96276e-23
1.38369e-17
4.4459e-12
9.41754e-07
-1.06211e-26
-1.10759e-22
1.31513e-17
4.43944e-12
9.39126e-07
-1.05966e-26
-1.01009e-22
1.62128e-17
4.97779e-12
9.37142e-07
-1.03097e-26
-8.01024e-23
1.68538e-17
4.98087e-12
9.39817e-07
-1.03177e-26
-8.0045e-23
1.68459e-17
4.97811e-12
9.39554e-07
-1.03461e-26
-8.01052e-23
1.6774e-17
4.96162e-12
9.38162e-07
-1.03519e-26
-8.0302e-23
1.67563e-17
4.95889e-12
9.3789e-07
-1.03696e-26
-8.09529e-23
1.66918e-17
4.94889e-12
9.36945e-07
-1.03723e-26
-8.10587e-23
1.66819e-17
4.94738e-12
9.36794e-07
-1.0379e-26
-8.13398e-23
1.66528e-17
4.94285e-12
9.36359e-07
-1.038e-26
-8.13803e-23
1.66487e-17
4.94222e-12
9.36296e-07
-1.03817e-26
-8.14542e-23
1.66406e-17
4.94094e-12
9.36172e-07
-1.03817e-26
-8.14542e-23
1.66406e-17
4.94094e-12
9.36172e-07
-1.038e-26
-8.13803e-23
1.66487e-17
4.94222e-12
9.36296e-07
-1.0379e-26
-8.13398e-23
1.66528e-17
4.94285e-12
9.36359e-07
-1.03723e-26
-8.10587e-23
1.66819e-17
4.94738e-12
9.36794e-07
-1.03696e-26
-8.09529e-23
1.66918e-17
4.94889e-12
9.36945e-07
-1.03519e-26
-8.0302e-23
1.67563e-17
4.95889e-12
9.3789e-07
-1.03461e-26
-8.01052e-23
1.6774e-17
4.96162e-12
9.38162e-07
-1.03177e-26
-8.0045e-23
1.68458e-17
4.97811e-12
9.39554e-07
-1.03097e-26
-8.01024e-23
1.68538e-17
4.98087e-12
9.39817e-07
-1.05966e-26
-1.0101e-22
1.62128e-17
4.97779e-12
9.37142e-07
-1.05645e-26
-8.91847e-23
1.96089e-17
5.51425e-12
9.35205e-07
-1.02787e-26
-6.85536e-23
2.01995e-17
5.51397e-12
9.37925e-07
-1.02867e-26
-6.85123e-23
2.01881e-17
5.51088e-12
9.37666e-07
-1.03155e-26
-6.86728e-23
2.00954e-17
5.49251e-12
9.36291e-07
-1.03213e-26
-6.88825e-23
2.00748e-17
5.48951e-12
9.36022e-07
-1.03392e-26
-6.9583e-23
1.99997e-17
5.4785e-12
9.35085e-07
-1.03419e-26
-6.96959e-23
1.99883e-17
5.47684e-12
9.34935e-07
-1.03487e-26
-6.99992e-23
1.99544e-17
5.47185e-12
9.34504e-07
-1.03497e-26
-7.00427e-23
1.99497e-17
5.47116e-12
9.34442e-07
-1.03514e-26
-7.01229e-23
1.99402e-17
5.46974e-12
9.34319e-07
-1.03514e-26
-7.01229e-23
1.99402e-17
5.46974e-12
9.34319e-07
-1.03497e-26
-7.00427e-23
1.99497e-17
5.47116e-12
9.34442e-07
-1.03487e-26
-6.99992e-23
1.99544e-17
5.47185e-12
9.34504e-07
-1.03419e-26
-6.96959e-23
1.99883e-17
5.47684e-12
9.34935e-07
-1.03392e-26
-6.9583e-23
1.99997e-17
5.4785e-12
9.35085e-07
-1.03213e-26
-6.88825e-23
2.00748e-17
5.48951e-12
9.36022e-07
-1.03155e-26
-6.86728e-23
2.00954e-17
5.49251e-12
9.36291e-07
-1.02867e-26
-6.85123e-23
2.01881e-17
5.51088e-12
9.37666e-07
-1.02787e-26
-6.85536e-23
2.01995e-17
5.51397e-12
9.37925e-07
-1.05645e-26
-8.91848e-23
1.96089e-17
5.51425e-12
9.35205e-07
-1.05234e-26
-7.50824e-23
2.33378e-17
6.04874e-12
9.33309e-07
-1.02389e-26
-5.47848e-23
2.38724e-17
6.0451e-12
9.36074e-07
-1.0247e-26
-5.47628e-23
2.3857e-17
6.04169e-12
9.35818e-07
-1.02762e-26
-5.50428e-23
2.37416e-17
6.02147e-12
9.3446e-07
-1.02821e-26
-5.52678e-23
2.3718e-17
6.01821e-12
9.34193e-07
-1.03003e-26
-5.60273e-23
2.36312e-17
6.00619e-12
9.33264e-07
-1.0303e-26
-5.61485e-23
2.36181e-17
6.00438e-12
9.33115e-07
-1.03099e-26
-5.64783e-23
2.3579e-17
5.99893e-12
9.32688e-07
-1.03109e-26
-5.65253e-23
2.35736e-17
5.99819e-12
9.32627e-07
-1.03126e-26
-5.6613e-23
2.35626e-17
5.99664e-12
9.32505e-07
-1.03126e-26
-5.6613e-23
2.35626e-17
5.99664e-12
9.32505e-07
-1.03109e-26
-5.65253e-23
2.35736e-17
5.99819e-12
9.32627e-07
-1.03099e-26
-5.64783e-23
2.3579e-17
5.99893e-12
9.32688e-07
-1.0303e-26
-5.61485e-23
2.36181e-17
6.00438e-12
9.33115e-07
-1.03003e-26
-5.60273e-23
2.36312e-17
6.00619e-12
9.33264e-07
-1.02821e-26
-5.52678e-23
2.3718e-17
6.01821e-12
9.34193e-07
-1.02762e-26
-5.50428e-23
2.37416e-17
6.02147e-12
9.3446e-07
-1.0247e-26
-5.47628e-23
2.3857e-17
6.04169e-12
9.35818e-07
-1.02389e-26
-5.47848e-23
2.38724e-17
6.0451e-12
9.36074e-07
-1.05234e-26
-7.50825e-23
2.33378e-17
6.04874e-12
9.33309e-07
-1.04716e-26
-5.85015e-23
2.73978e-17
6.58115e-12
9.31447e-07
-1.01889e-26
-3.86008e-23
2.78705e-17
6.57417e-12
9.34255e-07
-1.0197e-26
-3.86014e-23
2.78511e-17
6.57045e-12
9.34002e-07
-1.02268e-26
-3.90216e-23
2.77108e-17
6.5484e-12
9.32661e-07
-1.02328e-26
-3.92645e-23
2.76839e-17
6.54487e-12
9.32396e-07
-1.02512e-26
-4.00934e-23
2.75846e-17
6.53186e-12
9.31475e-07
-1.02539e-26
-4.02243e-23
2.75697e-17
6.52991e-12
9.31327e-07
-1.0261e-26
-4.05852e-23
2.75248e-17
6.52401e-12
9.30904e-07
-1.0262e-26
-4.06362e-23
2.75187e-17
6.5232e-12
9.30843e-07
-1.02638e-26
-4.07328e-23
2.75061e-17
6.52153e-12
9.30722e-07
-1.02638e-26
-4.07328e-23
2.75061e-17
6.52153e-12
9.30722e-07
-1.0262e-26
-4.06362e-23
2.75187e-17
6.5232e-12
9.30843e-07
-1.0261e-26
-4.05852e-23
2.75248e-17
6.52401e-12
9.30904e-07
-1.02539e-26
-4.02243e-23
2.75697e-17
6.52991e-12
9.31327e-07
-1.02512e-26
-4.00934e-23
2.75846e-17
6.53186e-12
9.31475e-07
-1.02328e-26
-3.92645e-23
2.76839e-17
6.54487e-12
9.32396e-07
-1.02268e-26
-3.90216e-23
2.77108e-17
6.5484e-12
9.32661e-07
-1.0197e-26
-3.86014e-23
2.78511e-17
6.57045e-12
9.34002e-07
-1.01889e-26
-3.86007e-23
2.78705e-17
6.57417e-12
9.34255e-07
-1.04716e-26
-5.85015e-23
2.73978e-17
6.58115e-12
9.31447e-07
-1.04074e-26
-3.92421e-23
3.1787e-17
7.11138e-12
9.29585e-07
-1.01268e-26
-1.98074e-23
3.21922e-17
7.10107e-12
9.32436e-07
-1.01351e-26
-1.98345e-23
3.21682e-17
7.09705e-12
9.32186e-07
-1.01656e-26
-2.04172e-23
3.20013e-17
7.0732e-12
9.30861e-07
-1.01716e-26
-2.06808e-23
3.19709e-17
7.06941e-12
9.30599e-07
-1.01904e-26
-2.15901e-23
3.18579e-17
7.05541e-12
9.29685e-07
-1.01932e-26
-2.17323e-23
3.18411e-17
7.05332e-12
9.29539e-07
-1.02004e-26
-2.21292e-23
3.17901e-17
7.04697e-12
9.29119e-07
-1.02014e-26
-2.21849e-23
3.17832e-17
7.04611e-12
9.29059e-07
-1.02032e-26
-2.22918e-23
3.17689e-17
7.0443e-12
9.28939e-07
-1.02032e-26
-2.22918e-23
3.17689e-17
7.0443e-12
9.28939e-07
-1.02014e-26
-2.21849e-23
3.17832e-17
7.04611e-12
9.29059e-07
-1.02004e-26
-2.21292e-23
3.17901e-17
7.04697e-12
9.29119e-07
-1.01932e-26
-2.17323e-23
3.18411e-17
7.05332e-12
9.29539e-07
-1.01904e-26
-2.15901e-23
3.18579e-17
7.05541e-12
9.29685e-07
-1.01716e-26
-2.06808e-23
3.19709e-17
7.06941e-12
9.30599e-07
-1.01656e-26
-2.04172e-23
3.20013e-17
7.0732e-12
9.30861e-07
-1.01351e-26
-1.98346e-23
3.21682e-17
7.09705e-12
9.32186e-07
-1.01268e-26
-1.98074e-23
3.21922e-17
7.10107e-12
9.32436e-07
-1.04074e-26
-3.92422e-23
3.1787e-17
7.11138e-12
9.29585e-07
0.000182037
2.63282e-05
5.10924e-07
1.38202e-10
-7.28408e-12
2.06054e-14
2.67649e-14
2.68717e-14
2.68947e-14
2.68987e-14
2.69007e-14
2.69138e-14
2.69805e-14
2.70613e-14
2.77274e-14
2.82963e-14
3.42692e-14
3.75007e-14
1.19685e-13
1.39908e-13
0.000203571
3.0149e-05
6.35353e-07
9.07075e-10
-6.99161e-12
2.01264e-14
2.67613e-14
2.68707e-14
2.68942e-14
2.68983e-14
2.68994e-14
2.691e-14
2.69782e-14
2.70604e-14
2.77379e-14
2.83136e-14
3.43648e-14
3.76177e-14
1.20753e-13
1.41213e-13
0.000203745
3.01717e-05
6.35676e-07
9.10171e-10
-6.98424e-12
2.01281e-14
2.67613e-14
2.68707e-14
2.68942e-14
2.68983e-14
2.68995e-14
2.69103e-14
2.69784e-14
2.70607e-14
2.77384e-14
2.83142e-14
3.43667e-14
3.76197e-14
1.20764e-13
1.41224e-13
0.000204281
3.0205e-05
6.34042e-07
9.08835e-10
-6.9286e-12
2.01736e-14
2.67612e-14
2.68707e-14
2.68943e-14
2.68984e-14
2.68997e-14
2.69113e-14
2.69796e-14
2.7062e-14
2.77405e-14
2.83167e-14
3.43729e-14
3.76264e-14
1.20797e-13
1.41253e-13
0.000204119
3.01742e-05
6.32869e-07
9.01719e-10
-6.93072e-12
2.01778e-14
2.67612e-14
2.68707e-14
2.68943e-14
2.68984e-14
2.68997e-14
2.69113e-14
2.69797e-14
2.70621e-14
2.77406e-14
2.83168e-14
3.43731e-14
3.76266e-14
1.20798e-13
1.41254e-13
0.000203631
3.00677e-05
6.28629e-07
8.76667e-10
-6.9358e-12
2.0194e-14
2.67612e-14
2.68707e-14
2.68943e-14
2.68984e-14
2.68997e-14
2.69114e-14
2.69797e-14
2.70621e-14
2.77407e-14
2.83169e-14
3.43734e-14
3.76269e-14
1.20799e-13
1.41255e-13
0.000203537
3.00501e-05
6.27984e-07
8.72655e-10
-6.93778e-12
2.01957e-14
2.67612e-14
2.68707e-14
2.68943e-14
2.68984e-14
2.68997e-14
2.69114e-14
2.69798e-14
2.70621e-14
2.77407e-14
2.83169e-14
3.43735e-14
3.76269e-14
1.20799e-13
1.41255e-13
0.000203309
3.00015e-05
6.26087e-07
8.61119e-10
-6.9425e-12
2.0201e-14
2.67612e-14
2.68707e-14
2.68943e-14
2.68984e-14
2.68997e-14
2.69114e-14
2.69798e-14
2.70621e-14
2.77407e-14
2.83169e-14
3.43735e-14
3.76269e-14
1.20799e-13
1.41255e-13
0.000203273
2.99946e-05
6.25835e-07
8.5953e-10
-6.94342e-12
2.02015e-14
2.67612e-14
2.68707e-14
2.68943e-14
2.68984e-14
2.68997e-14
2.69114e-14
2.69798e-14
2.70621e-14
2.77407e-14
2.83169e-14
3.43735e-14
3.76269e-14
1.20799e-13
1.41255e-13
0.000203212
2.99815e-05
6.2532e-07
8.56369e-10
-6.94493e-12
2.02027e-14
2.67612e-14
2.68707e-14
2.68943e-14
2.68984e-14
2.68997e-14
2.69114e-14
2.69798e-14
2.70621e-14
2.77407e-14
2.83169e-14
3.43735e-14
3.76269e-14
1.20799e-13
1.41255e-13
0.000203212
2.99815e-05
6.2532e-07
8.56369e-10
-6.94493e-12
2.02027e-14
2.67612e-14
2.68707e-14
2.68943e-14
2.68984e-14
2.68997e-14
2.69114e-14
2.69798e-14
2.70621e-14
2.77407e-14
2.83169e-14
3.43735e-14
3.76269e-14
1.20799e-13
1.41255e-13
0.000203273
2.99946e-05
6.25835e-07
8.5953e-10
-6.94342e-12
2.02015e-14
2.67612e-14
2.68707e-14
2.68943e-14
2.68984e-14
2.68997e-14
2.69114e-14
2.69798e-14
2.70621e-14
2.77407e-14
2.83169e-14
3.43735e-14
3.76269e-14
1.20799e-13
1.41255e-13
0.000203309
3.00015e-05
6.26087e-07
8.61119e-10
-6.9425e-12
2.0201e-14
2.67612e-14
2.68707e-14
2.68943e-14
2.68984e-14
2.68997e-14
2.69114e-14
2.69798e-14
2.70621e-14
2.77407e-14
2.83169e-14
3.43735e-14
3.76269e-14
1.20799e-13
1.41255e-13
0.000203537
3.00501e-05
6.27984e-07
8.72655e-10
-6.93778e-12
2.01957e-14
2.67612e-14
2.68707e-14
2.68943e-14
2.68984e-14
2.68997e-14
2.69114e-14
2.69798e-14
2.70621e-14
2.77407e-14
2.83169e-14
3.43735e-14
3.76269e-14
1.20799e-13
1.41255e-13
0.000203631
3.00677e-05
6.28629e-07
8.76668e-10
-6.9358e-12
2.0194e-14
2.67612e-14
2.68707e-14
2.68943e-14
2.68984e-14
2.68997e-14
2.69114e-14
2.69797e-14
2.70621e-14
2.77407e-14
2.83169e-14
3.43734e-14
3.76269e-14
1.20799e-13
1.41255e-13
0.000204119
3.01742e-05
6.32869e-07
9.01719e-10
-6.93072e-12
2.01778e-14
2.67612e-14
2.68707e-14
2.68943e-14
2.68984e-14
2.68997e-14
2.69113e-14
2.69797e-14
2.70621e-14
2.77406e-14
2.83168e-14
3.43731e-14
3.76266e-14
1.20798e-13
1.41254e-13
0.000204281
3.0205e-05
6.34042e-07
9.08835e-10
-6.9286e-12
2.01736e-14
2.67612e-14
2.68707e-14
2.68943e-14
2.68984e-14
2.68997e-14
2.69113e-14
2.69796e-14
2.7062e-14
2.77405e-14
2.83167e-14
3.43729e-14
3.76264e-14
1.20797e-13
1.41253e-13
0.000203745
3.01717e-05
6.35676e-07
9.10172e-10
-6.98424e-12
2.01281e-14
2.67613e-14
2.68707e-14
2.68942e-14
2.68983e-14
2.68995e-14
2.69103e-14
2.69784e-14
2.70607e-14
2.77384e-14
2.83142e-14
3.43667e-14
3.76197e-14
1.20764e-13
1.41224e-13
0.000203571
3.0149e-05
6.35353e-07
9.07076e-10
-6.99161e-12
2.01264e-14
2.67613e-14
2.68707e-14
2.68942e-14
2.68983e-14
2.68994e-14
2.691e-14
2.69782e-14
2.70604e-14
2.77379e-14
2.83136e-14
3.43648e-14
3.76177e-14
1.20753e-13
1.41213e-13
0.000182037
2.63282e-05
5.10924e-07
1.38202e-10
-7.28409e-12
2.06054e-14
2.67649e-14
2.68717e-14
2.68947e-14
2.68987e-14
2.69007e-14
2.69138e-14
2.69805e-14
2.70613e-14