/*--------------------------------*- C++ -*----------------------------------*\
  =========                 |
  \\      /  F ield         | OpenFOAM: The Open Source CFD Toolbox
   \\    /   O peration     | Website:  https://openfoam.org
    \\  /    A nd           | Version:  8
     \\/     M anipulation  |
\*---------------------------------------------------------------------------*/
FoamFile
{
    version     2.0;
    format      ascii;
    class       volScalarField;
    location    "3.2";
    object      p;
}
// * * * * * * * * * * * * * * * * * * * * * * * * * * * * * * * * * * * * * //

dimensions      [0 2 -2 0 0 0 0];

internalField   nonuniform List<scalar> 
180000
(
0.000899799
0.000838897
0.000877175
0.000747231
0.000816012
0.000885279
0.000824607
0.000862602
0.000733981
0.000801619
0.000884514
0.000823876
0.000861836
0.000733341
0.000800897
0.0008803
0.000819824
0.000857606
0.000729765
0.000796927
0.000879797
0.000819344
0.000857098
0.000729344
0.00079645
0.000877911
0.000817544
0.000855201
0.000727762
0.000794672
0.000877639
0.000817284
0.000854925
0.000727534
0.000794413
0.000876798
0.000816482
0.000854077
0.000726829
0.000793618
0.000876684
0.000816374
0.000853961
0.000726733
0.000793509
0.000876444
0.000816145
0.000853719
0.000726532
0.000793281
0.000876444
0.000816145
0.000853719
0.000726532
0.000793281
0.000876684
0.000816374
0.000853961
0.000726733
0.000793509
0.000876798
0.000816482
0.000854077
0.000726829
0.000793618
0.000877639
0.000817284
0.000854925
0.000727534
0.000794413
0.000877911
0.000817544
0.000855201
0.000727762
0.000794672
0.000879797
0.000819344
0.000857098
0.000729344
0.00079645
0.0008803
0.000819824
0.000857606
0.000729765
0.000796927
0.000884514
0.000823876
0.000861836
0.000733341
0.000800897
0.000885279
0.000824607
0.000862602
0.000733981
0.000801619
0.000899799
0.000838897
0.000877175
0.000747231
0.000816012
0.000734419
0.000706151
0.000724852
0.000655808
0.000695018
0.00072807
0.00069901
0.00071814
0.000648013
0.000687489
0.000727728
0.000698638
0.00071778
0.00064763
0.000687104
0.000725804
0.000696533
0.000715748
0.000645455
0.000684949
0.000725574
0.000696284
0.000715505
0.0006452
0.00068469
0.000724706
0.000695343
0.000714586
0.000644232
0.000683719
0.000724581
0.000695207
0.000714453
0.000644094
0.000683577
0.000724192
0.000694787
0.00071404
0.000643661
0.000683141
0.000724139
0.00069473
0.000713984
0.000643603
0.000683082
0.000724028
0.000694609
0.000713866
0.000643479
0.000682957
0.000724028
0.000694609
0.000713866
0.000643479
0.000682957
0.000724139
0.00069473
0.000713984
0.000643603
0.000683082
0.000724192
0.000694787
0.00071404
0.000643661
0.000683141
0.000724581
0.000695207
0.000714453
0.000644094
0.000683577
0.000724706
0.000695343
0.000714586
0.000644232
0.000683719
0.000725574
0.000696284
0.000715505
0.0006452
0.00068469
0.000725804
0.000696533
0.000715748
0.000645455
0.000684949
0.000727728
0.000698638
0.00071778
0.00064763
0.000687104
0.00072807
0.00069901
0.00071814
0.000648013
0.000687489
0.000734419
0.000706151
0.000724852
0.000655808
0.000695018
0.000527111
0.000504673
0.000519969
0.00046603
0.000498999
0.000522014
0.000499214
0.000514691
0.000460366
0.000493311
0.00052174
0.000498929
0.000514408
0.000460086
0.000493018
0.000520165
0.000497284
0.000512777
0.000458463
0.000491347
0.000519979
0.000497092
0.000512584
0.000458274
0.000491149
0.00051927
0.000496357
0.000511848
0.000457553
0.000490396
0.000519169
0.000496253
0.000511742
0.00045745
0.000490288
0.000518851
0.000495924
0.000511412
0.000457127
0.00048995
0.000518809
0.00049588
0.000511368
0.000457084
0.000489904
0.000518718
0.000495787
0.000511273
0.000456992
0.000489808
0.000518718
0.000495787
0.000511273
0.000456992
0.000489808
0.000518809
0.00049588
0.000511368
0.000457084
0.000489904
0.000518851
0.000495924
0.000511412
0.000457127
0.00048995
0.000519169
0.000496253
0.000511742
0.00045745
0.000490288
0.00051927
0.000496357
0.000511848
0.000457553
0.000490396
0.000519979
0.000497092
0.000512584
0.000458274
0.000491149
0.000520165
0.000497284
0.000512777
0.000458463
0.000491347
0.00052174
0.000498929
0.000514408
0.000460086
0.000493018
0.000522014
0.000499214
0.000514691
0.000460366
0.000493311
0.000527111
0.000504673
0.000519969
0.00046603
0.000498999
0.000492493
0.00046629
0.000484255
0.000423619
0.000462888
0.000486421
0.00046014
0.000478103
0.000417674
0.000456609
0.000486093
0.000459818
0.000477772
0.000417378
0.000456283
0.000484213
0.000457954
0.000475865
0.000415652
0.000454417
0.000483991
0.000457737
0.00047564
0.000415453
0.000454196
0.000483147
0.000456905
0.000474781
0.000414687
0.000453358
0.000483027
0.000456787
0.000474658
0.000414578
0.000453237
0.000482649
0.000456416
0.000474273
0.000414236
0.000452861
0.000482599
0.000456367
0.000474221
0.000414191
0.000452811
0.000482491
0.000456261
0.000474111
0.000414093
0.000452703
0.000482491
0.000456261
0.000474111
0.000414093
0.000452703
0.000482599
0.000456367
0.000474221
0.000414191
0.000452811
0.000482649
0.000456416
0.000474273
0.000414236
0.000452861
0.000483027
0.000456787
0.000474658
0.000414578
0.000453237
0.000483147
0.000456905
0.000474781
0.000414687
0.000453358
0.000483991
0.000457737
0.00047564
0.000415453
0.000454196
0.000484213
0.000457954
0.000475865
0.000415652
0.000454417
0.000486093
0.000459818
0.000477772
0.000417378
0.000456283
0.000486421
0.00046014
0.000478103
0.000417674
0.000456609
0.000492493
0.00046629
0.000484255
0.000423619
0.000462888
0.000515431
0.00048773
0.000507069
0.000442278
0.000487142
0.000509033
0.000481249
0.000500588
0.000436023
0.000480546
0.000508685
0.000480906
0.000500235
0.000435708
0.000480199
0.000506673
0.000478911
0.000498194
0.000433863
0.000478201
0.000506437
0.000478679
0.000497954
0.000433651
0.000477965
0.000505533
0.000477788
0.000497034
0.000432831
0.000477066
0.000505404
0.000477662
0.000496903
0.000432715
0.000476937
0.000505
0.000477265
0.000496491
0.000432349
0.000476535
0.000504946
0.000477212
0.000496436
0.000432301
0.00047648
0.000504831
0.000477099
0.000496318
0.000432196
0.000476365
0.000504831
0.000477099
0.000496318
0.000432196
0.000476365
0.000504946
0.000477212
0.000496436
0.000432301
0.00047648
0.000505
0.000477265
0.000496491
0.000432349
0.000476535
0.000505404
0.000477662
0.000496903
0.000432715
0.000476937
0.000505533
0.000477788
0.000497034
0.000432831
0.000477066
0.000506437
0.000478679
0.000497954
0.000433651
0.000477965
0.000506673
0.000478911
0.000498194
0.000433863
0.000478201
0.000508685
0.000480906
0.000500235
0.000435708
0.000480199
0.000509033
0.000481249
0.000500588
0.000436023
0.000480546
0.000515431
0.00048773
0.000507069
0.000442278
0.000487142
0.000528214
0.000501083
0.000520512
0.000455788
0.000504273
0.000521999
0.000494741
0.000514199
0.000449606
0.000497819
0.000521656
0.000494401
0.000513852
0.000449291
0.000497475
0.000519661
0.000492409
0.000511823
0.000447431
0.00049547
0.000519428
0.000492178
0.000511585
0.000447217
0.000495234
0.00051853
0.000491288
0.000510669
0.00044639
0.000494332
0.000518402
0.000491162
0.000510538
0.000446273
0.000494202
0.000518001
0.000490765
0.000510128
0.000445903
0.000493798
0.000517948
0.000490712
0.000510073
0.000445854
0.000493743
0.000517833
0.000490599
0.000509956
0.000445749
0.000493627
0.000517833
0.000490599
0.000509956
0.000445749
0.000493627
0.000517948
0.000490712
0.000510073
0.000445854
0.000493743
0.000518001
0.000490765
0.000510128
0.000445903
0.000493798
0.000518402
0.000491162
0.000510538
0.000446273
0.000494202
0.00051853
0.000491288
0.000510669
0.00044639
0.000494332
0.000519428
0.000492178
0.000511585
0.000447217
0.000495234
0.000519661
0.000492409
0.000511823
0.000447431
0.00049547
0.000521656
0.000494401
0.000513852
0.000449291
0.000497475
0.000521999
0.000494741
0.000514199
0.000449606
0.000497819
0.000528214
0.000501083
0.000520512
0.000455788
0.000504273
0.000528135
0.000501754
0.000521136
0.000457284
0.000509056
0.000522133
0.000495618
0.000515038
0.000451284
0.000502819
0.000521799
0.000495286
0.000514699
0.000450975
0.00050248
0.000519833
0.000493319
0.000512698
0.000449131
0.000500493
0.000519604
0.000493092
0.000512464
0.00044892
0.00050026
0.000518718
0.000492212
0.00051156
0.000448099
0.000499365
0.000518593
0.000492088
0.000511432
0.000447983
0.000499237
0.000518196
0.000491695
0.000511027
0.000447616
0.000498835
0.000518144
0.000491644
0.000510973
0.000447568
0.000498781
0.00051803
0.000491531
0.000510857
0.000447463
0.000498666
0.00051803
0.000491531
0.000510857
0.000447463
0.000498666
0.000518144
0.000491644
0.000510973
0.000447568
0.000498781
0.000518196
0.000491695
0.000511027
0.000447616
0.000498835
0.000518593
0.000492088
0.000511432
0.000447983
0.000499237
0.000518718
0.000492212
0.00051156
0.000448099
0.000499365
0.000519604
0.000493092
0.000512464
0.00044892
0.00050026
0.000519833
0.000493319
0.000512698
0.000449131
0.000500493
0.000521799
0.000495286
0.000514699
0.000450975
0.00050248
0.000522133
0.000495618
0.000515038
0.000451284
0.000502819
0.000528135
0.000501754
0.000521136
0.000457284
0.000509056
0.000525491
0.000499528
0.000519053
0.000455623
0.000510728
0.000519617
0.000493531
0.000513091
0.000449766
0.000504642
0.000519287
0.000493204
0.000512756
0.000449462
0.000504307
0.000517327
0.000491245
0.000510763
0.000447625
0.000502323
0.000517099
0.00049102
0.000510531
0.000447416
0.000502091
0.000516215
0.000490143
0.00050963
0.000446597
0.000501196
0.000516091
0.00049002
0.000509503
0.000446482
0.000501069
0.000515696
0.000489629
0.000509099
0.000446116
0.000500667
0.000515643
0.000489577
0.000509045
0.000446068
0.000500613
0.00051553
0.000489465
0.000508929
0.000445963
0.000500498
0.00051553
0.000489465
0.000508929
0.000445963
0.000500498
0.000515643
0.000489577
0.000509045
0.000446068
0.000500613
0.000515696
0.000489629
0.000509099
0.000446116
0.000500667
0.000516091
0.00049002
0.000509503
0.000446482
0.000501069
0.000516215
0.000490143
0.00050963
0.000446597
0.000501196
0.000517099
0.00049102
0.000510531
0.000447416
0.000502091
0.000517327
0.000491245
0.000510763
0.000447625
0.000502323
0.000519287
0.000493204
0.000512756
0.000449462
0.000504307
0.000519617
0.000493531
0.000513091
0.000449766
0.000504642
0.000525491
0.000499528
0.000519053
0.000455623
0.000510728
0.00052423
0.000498538
0.000518289
0.000455051
0.000513135
0.000518449
0.000492646
0.000512426
0.000449302
0.000507159
0.000518121
0.000492321
0.000512094
0.000449001
0.000506826
0.000516159
0.000490362
0.0005101
0.000447164
0.000504836
0.000515932
0.000490138
0.000509869
0.000446956
0.000504604
0.000515046
0.00048926
0.000508966
0.000446136
0.000503705
0.000514922
0.000489137
0.000508839
0.000446021
0.000503578
0.000514525
0.000488745
0.000508434
0.000445655
0.000503174
0.000514473
0.000488694
0.00050838
0.000445606
0.00050312
0.000514359
0.000488581
0.000508264
0.000445502
0.000503005
0.000514359
0.000488581
0.000508264
0.000445502
0.000503005
0.000514473
0.000488694
0.00050838
0.000445606
0.00050312
0.000514525
0.000488745
0.000508434
0.000445655
0.000503174
0.000514922
0.000489137
0.000508839
0.000446021
0.000503578
0.000515046
0.00048926
0.000508966
0.000446136
0.000503705
0.000515932
0.000490138
0.000509869
0.000446956
0.000504604
0.000516159
0.000490362
0.0005101
0.000447164
0.000504836
0.000518121
0.000492321
0.000512094
0.000449001
0.000506826
0.000518449
0.000492646
0.000512426
0.000449302
0.000507159
0.00052423
0.000498538
0.000518289
0.000455051
0.000513135
0.000523908
0.000498491
0.000518454
0.000455474
0.000515832
0.000518223
0.000492701
0.000512692
0.000449826
0.000509952
0.000517897
0.000492379
0.000512362
0.000449527
0.00050962
0.000515934
0.00049042
0.000510368
0.000447689
0.000507625
0.000515708
0.000490197
0.000510138
0.000447481
0.000507393
0.00051482
0.000489317
0.000509233
0.000446659
0.00050649
0.000514696
0.000489195
0.000509106
0.000446545
0.000506363
0.000514298
0.000488802
0.0005087
0.000446177
0.000505958
0.000514246
0.000488751
0.000508647
0.000446129
0.000505904
0.000514132
0.000488638
0.000508531
0.000446024
0.000505788
0.000514132
0.000488638
0.000508531
0.000446024
0.000505788
0.000514246
0.000488751
0.000508647
0.000446129
0.000505904
0.000514298
0.000488802
0.0005087
0.000446177
0.000505958
0.000514696
0.000489195
0.000509106
0.000446545
0.000506363
0.00051482
0.000489317
0.000509233
0.000446659
0.00050649
0.000515708
0.000490197
0.000510138
0.000447481
0.000507393
0.000515934
0.00049042
0.000510368
0.000447689
0.000507625
0.000517897
0.000492379
0.000512362
0.000449527
0.00050962
0.000518223
0.000492701
0.000512692
0.000449826
0.000509952
0.000523908
0.000498491
0.000518454
0.000455474
0.000515832
0.000523682
0.000498557
0.000518708
0.000456097
0.000517674
0.000518097
0.000492874
0.000513051
0.000450552
0.000511878
0.000517775
0.000492555
0.000512725
0.000450256
0.000511549
0.000515813
0.000490599
0.000510733
0.000448417
0.000509548
0.000515588
0.000490376
0.000510503
0.00044821
0.000509317
0.000514699
0.000489496
0.000509598
0.000447386
0.00050841
0.000514575
0.000489375
0.000509472
0.000447272
0.000508282
0.000514177
0.000488981
0.000509066
0.000446904
0.000507875
0.000514125
0.00048893
0.000509012
0.000446856
0.000507822
0.000514012
0.000488818
0.000508896
0.000446751
0.000507705
0.000514012
0.000488818
0.000508896
0.000446751
0.000507705
0.000514125
0.00048893
0.000509012
0.000446856
0.000507822
0.000514177
0.000488981
0.000509066
0.000446904
0.000507875
0.000514575
0.000489375
0.000509472
0.000447272
0.000508282
0.000514699
0.000489496
0.000509598
0.000447386
0.00050841
0.000515588
0.000490376
0.000510503
0.00044821
0.000509317
0.000515813
0.000490599
0.000510733
0.000448417
0.000509548
0.000517775
0.000492555
0.000512725
0.000450256
0.000511549
0.000518097
0.000492874
0.000513051
0.000450552
0.000511878
0.000523682
0.000498557
0.000518708
0.000456097
0.000517674
0.000523342
0.000498506
0.000518831
0.000456618
0.000516455
0.000517858
0.000492929
0.00051328
0.000451175
0.000510759
0.000517538
0.000492613
0.000512957
0.000450881
0.000510432
0.000515578
0.00049066
0.000510968
0.000449043
0.000508435
0.000515354
0.000490438
0.000510739
0.000448836
0.000508205
0.000514465
0.000489558
0.000509834
0.000448012
0.000507298
0.000514342
0.000489437
0.000509708
0.000447898
0.000507171
0.000513943
0.000489043
0.000509302
0.000447529
0.000506764
0.000513892
0.000488992
0.000509249
0.000447481
0.00050671
0.000513778
0.00048888
0.000509132
0.000447376
0.000506594
0.000513778
0.00048888
0.000509132
0.000447376
0.000506594
0.000513892
0.000488992
0.000509249
0.000447481
0.00050671
0.000513943
0.000489043
0.000509302
0.000447529
0.000506764
0.000514342
0.000489437
0.000509708
0.000447898
0.000507171
0.000514465
0.000489558
0.000509834
0.000448012
0.000507298
0.000515354
0.000490438
0.000510739
0.000448836
0.000508205
0.000515578
0.00049066
0.000510968
0.000449043
0.000508435
0.000517538
0.000492613
0.000512957
0.000450881
0.000510432
0.000517858
0.000492929
0.00051328
0.000451175
0.000510759
0.000523342
0.000498506
0.000518831
0.000456618
0.000516455
0.000522963
0.000498404
0.000518897
0.000457009
0.000514365
0.000517576
0.000492929
0.000513448
0.000451666
0.000508772
0.000517259
0.000492616
0.000513127
0.000451374
0.000508448
0.000515302
0.000490666
0.000511141
0.000449538
0.000506458
0.000515078
0.000490446
0.000510914
0.000449332
0.000506229
0.000514189
0.000489565
0.000510008
0.000448507
0.000505323
0.000514066
0.000489445
0.000509883
0.000448394
0.000505197
0.000513668
0.000489051
0.000509476
0.000448024
0.00050479
0.000513616
0.000489
0.000509423
0.000447976
0.000504736
0.000513502
0.000488887
0.000509307
0.000447871
0.00050462
0.000513502
0.000488887
0.000509307
0.000447871
0.00050462
0.000513616
0.000489
0.000509423
0.000447976
0.000504736
0.000513668
0.000489051
0.000509476
0.000448024
0.00050479
0.000514066
0.000489445
0.000509883
0.000448394
0.000505197
0.000514189
0.000489565
0.000510008
0.000448507
0.000505323
0.000515078
0.000490446
0.000510914
0.000449332
0.000506229
0.000515302
0.000490666
0.000511141
0.000449538
0.000506458
0.000517259
0.000492616
0.000513127
0.000451374
0.000508448
0.000517576
0.000492929
0.000513448
0.000451666
0.000508772
0.000522963
0.000498404
0.000518897
0.000457009
0.000514365
0.000522607
0.000498312
0.000518968
0.000457318
0.000512535
0.000517315
0.000492937
0.000513618
0.000452073
0.000507041
0.000517
0.000492627
0.0005133
0.000451784
0.000506722
0.000515046
0.000490681
0.000511318
0.00044995
0.000504737
0.000514824
0.000490461
0.000511091
0.000449744
0.000504509
0.000513934
0.000489581
0.000510186
0.000448918
0.000503605
0.000513811
0.000489461
0.00051006
0.000448805
0.000503479
0.000513412
0.000489067
0.000509654
0.000448436
0.000503072
0.000513361
0.000489016
0.000509601
0.000448388
0.000503019
0.000513247
0.000488903
0.000509484
0.000448282
0.000502902
0.000513247
0.000488903
0.000509484
0.000448282
0.000502902
0.000513361
0.000489016
0.000509601
0.000448388
0.000503019
0.000513412
0.000489067
0.000509654
0.000448436
0.000503072
0.000513811
0.000489461
0.00051006
0.000448805
0.000503479
0.000513934
0.000489581
0.000510186
0.000448918
0.000503605
0.000514824
0.000490461
0.000511091
0.000449744
0.000504509
0.000515046
0.000490681
0.000511318
0.00044995
0.000504737
0.000517
0.000492627
0.0005133
0.000451784
0.000506722
0.000517315
0.000492937
0.000513618
0.000452073
0.000507041
0.000522607
0.000498312
0.000518968
0.000457318
0.000512535
0.000522283
0.000498242
0.000519055
0.000457566
0.000510967
0.000517082
0.000492965
0.000513802
0.000452418
0.00050557
0.00051677
0.000492658
0.000513487
0.000452131
0.000505254
0.00051482
0.000490715
0.000511509
0.0004503
0.000503275
0.000514598
0.000490497
0.000511283
0.000450095
0.000503048
0.000513708
0.000489616
0.000510377
0.000449269
0.000502144
0.000513586
0.000489496
0.000510253
0.000449156
0.000502019
0.000513187
0.000489102
0.000509846
0.000448786
0.000501613
0.000513135
0.000489052
0.000509793
0.000448738
0.00050156
0.000513021
0.000488939
0.000509677
0.000448632
0.000501443
0.000513021
0.000488939
0.000509677
0.000448632
0.000501443
0.000513135
0.000489052
0.000509793
0.000448738
0.00050156
0.000513187
0.000489102
0.000509846
0.000448786
0.000501613
0.000513586
0.000489496
0.000510253
0.000449156
0.000502019
0.000513708
0.000489616
0.000510377
0.000449269
0.000502144
0.000514598
0.000490497
0.000511283
0.000450095
0.000503048
0.00051482
0.000490715
0.000511509
0.0004503
0.000503275
0.00051677
0.000492658
0.000513487
0.000452131
0.000505254
0.000517082
0.000492965
0.000513802
0.000452418
0.00050557
0.000522283
0.000498242
0.000519055
0.000457566
0.000510967
0.00052198
0.000498186
0.000519152
0.000457755
0.000509463
0.00051687
0.000493004
0.000513994
0.000452702
0.00050416
0.000516561
0.0004927
0.000513682
0.000452417
0.000503846
0.000514614
0.000490761
0.000511708
0.000450589
0.000501874
0.000514393
0.000490544
0.000511483
0.000450386
0.000501649
0.000513503
0.000489663
0.000510577
0.000449559
0.000500745
0.000513381
0.000489544
0.000510453
0.000449447
0.000500621
0.000512982
0.00048915
0.000510046
0.000449076
0.000500214
0.000512931
0.000489099
0.000509993
0.000449029
0.000500161
0.000512816
0.000488987
0.000509877
0.000448923
0.000500045
0.000512816
0.000488987
0.000509877
0.000448923
0.000500045
0.000512931
0.000489099
0.000509993
0.000449029
0.000500161
0.000512982
0.00048915
0.000510046
0.000449076
0.000500214
0.000513381
0.000489544
0.000510453
0.000449447
0.000500621
0.000513503
0.000489663
0.000510577
0.000449559
0.000500745
0.000514393
0.000490544
0.000511483
0.000450386
0.000501649
0.000514614
0.000490761
0.000511708
0.000450589
0.000501874
0.000516561
0.0004927
0.000513682
0.000452417
0.000503846
0.00051687
0.000493004
0.000513994
0.000452702
0.00050416
0.00052198
0.000498186
0.000519152
0.000457755
0.000509463
0.000521696
0.000498139
0.000519256
0.000457881
0.000507952
0.000516674
0.000493051
0.000514191
0.000452921
0.000502741
0.000516367
0.000492749
0.000513881
0.000452639
0.00050243
0.000514424
0.000490814
0.000511911
0.000450815
0.000500465
0.000514204
0.000490598
0.000511688
0.000450613
0.000500241
0.000513314
0.000489718
0.000510782
0.000449786
0.000499338
0.000513193
0.000489599
0.000510658
0.000449674
0.000499214
0.000512793
0.000489205
0.000510251
0.000449303
0.000498808
0.000512742
0.000489155
0.000510198
0.000449256
0.000498755
0.000512627
0.000489042
0.000510082
0.00044915
0.000498639
0.000512627
0.000489042
0.000510082
0.00044915
0.000498639
0.000512742
0.000489155
0.000510198
0.000449256
0.000498755
0.000512793
0.000489205
0.000510251
0.000449303
0.000498808
0.000513193
0.000489599
0.000510658
0.000449674
0.000499214
0.000513314
0.000489718
0.000510782
0.000449786
0.000499338
0.000514204
0.000490598
0.000511688
0.000450613
0.000500241
0.000514424
0.000490814
0.000511911
0.000450815
0.000500465
0.000516367
0.000492749
0.000513881
0.000452639
0.00050243
0.000516674
0.000493051
0.000514191
0.000452921
0.000502741
0.000521696
0.000498139
0.000519256
0.000457881
0.000507952
0.000521428
0.000498102
0.000519367
0.000457945
0.000506447
0.000516493
0.000493104
0.000514393
0.000453077
0.000501325
0.000516189
0.000492805
0.000514086
0.000452798
0.000501017
0.00051425
0.000490875
0.000512121
0.000450978
0.000499059
0.000514031
0.00049066
0.000511898
0.000450776
0.000498836
0.00051314
0.00048978
0.000510992
0.000449949
0.000497934
0.00051302
0.000489661
0.000510869
0.000449838
0.000497811
0.00051262
0.000489267
0.000510461
0.000449467
0.000497405
0.000512569
0.000489217
0.000510409
0.00044942
0.000497352
0.000512454
0.000489104
0.000510293
0.000449314
0.000497236
0.000512454
0.000489104
0.000510293
0.000449314
0.000497236
0.000512569
0.000489217
0.000510409
0.00044942
0.000497352
0.00051262
0.000489267
0.000510461
0.000449467
0.000497405
0.00051302
0.000489661
0.000510869
0.000449838
0.000497811
0.00051314
0.00048978
0.000510992
0.000449949
0.000497934
0.000514031
0.00049066
0.000511898
0.000450776
0.000498836
0.00051425
0.000490875
0.000512121
0.000450978
0.000499059
0.000516189
0.000492805
0.000514086
0.000452798
0.000501017
0.000516493
0.000493104
0.000514393
0.000453077
0.000501325
0.000521428
0.000498102
0.000519367
0.000457945
0.000506447
0.000521178
0.000498074
0.000519488
0.000457947
0.00050496
0.000516328
0.000493166
0.000514603
0.00045317
0.000499925
0.000516026
0.000492869
0.000514298
0.000452893
0.00049962
0.000514091
0.000490944
0.000512338
0.000451078
0.000497669
0.000513874
0.00049073
0.000512116
0.000450878
0.000497447
0.000512983
0.00048985
0.000511211
0.000450051
0.000496547
0.000512863
0.000489732
0.000511088
0.00044994
0.000496424
0.000512463
0.000489337
0.00051068
0.000449569
0.000496018
0.000512412
0.000489288
0.000510628
0.000449522
0.000495966
0.000512297
0.000489175
0.000510511
0.000449416
0.00049585
0.000512297
0.000489175
0.000510511
0.000449416
0.00049585
0.000512412
0.000489288
0.000510628
0.000449522
0.000495966
0.000512463
0.000489337
0.00051068
0.000449569
0.000496018
0.000512863
0.000489732
0.000511088
0.00044994
0.000496424
0.000512983
0.00048985
0.000511211
0.000450051
0.000496547
0.000513874
0.00049073
0.000512116
0.000450878
0.000497447
0.000514091
0.000490944
0.000512338
0.000451078
0.000497669
0.000516026
0.000492869
0.000514298
0.000452893
0.00049962
0.000516328
0.000493166
0.000514603
0.00045317
0.000499925
0.000521178
0.000498074
0.000519488
0.000457947
0.00050496
0.000520946
0.000498057
0.000519619
0.000457889
0.000503427
0.000516178
0.000493235
0.000514821
0.000453201
0.000498477
0.000515879
0.000492941
0.000514519
0.000452926
0.000498175
0.000513949
0.000491021
0.000512564
0.000451117
0.000496232
0.000513732
0.000490808
0.000512343
0.000450917
0.000496011
0.000512841
0.000489929
0.000511438
0.000450091
0.000495112
0.000512722
0.000489811
0.000511316
0.000449981
0.00049499
0.000512321
0.000489416
0.000510908
0.00044961
0.000494584
0.000512271
0.000489367
0.000510856
0.000449563
0.000494532
0.000512156
0.000489254
0.000510739
0.000449457
0.000494416
0.000512156
0.000489254
0.000510739
0.000449457
0.000494416
0.000512271
0.000489367
0.000510856
0.000449563
0.000494532
0.000512321
0.000489416
0.000510908
0.00044961
0.000494584
0.000512722
0.000489811
0.000511316
0.000449981
0.00049499
0.000512841
0.000489929
0.000511438
0.000450091
0.000495112
0.000513732
0.000490808
0.000512343
0.000450917
0.000496011
0.000513949
0.000491021
0.000512564
0.000451117
0.000496232
0.000515879
0.000492941
0.000514519
0.000452926
0.000498175
0.000516178
0.000493235
0.000514821
0.000453201
0.000498477
0.000520946
0.000498057
0.000519619
0.000457889
0.000503427
-1.62794e-05
1.57785e-05
2.83663e-06
7.01969e-07
2.5268e-07
1.81106e-07
1.65421e-07
1.62527e-07
1.61817e-07
1.61665e-07
1.61616e-07
1.61593e-07
1.61495e-07
1.61386e-07
1.60519e-07
1.59851e-07
1.53415e-07
1.50644e-07
1.11916e-07
1.07812e-07
-1.63491e-05
1.57394e-05
2.85192e-06
7.07208e-07
2.5398e-07
1.81426e-07
1.65479e-07
1.62527e-07
1.61801e-07
1.61645e-07
1.61594e-07
1.61571e-07
1.61471e-07
1.61359e-07
1.60478e-07
1.59803e-07
1.53295e-07
1.50518e-07
1.11616e-07
1.076e-07
-1.63432e-05
1.57299e-05
2.84902e-06
7.06821e-07
2.53906e-07
1.81417e-07
1.65478e-07
1.62527e-07
1.618e-07
1.61645e-07
1.61594e-07
1.61571e-07
1.61471e-07
1.61359e-07
1.60477e-07
1.59802e-07
1.53293e-07
1.50516e-07
1.11613e-07
1.07598e-07
-1.63147e-05
1.56786e-05
2.83333e-06
7.04738e-07
2.53512e-07
1.81368e-07
1.65467e-07
1.62525e-07
1.61799e-07
1.61644e-07
1.61593e-07
1.6157e-07
1.61469e-07
1.61357e-07
1.60475e-07
1.59799e-07
1.53286e-07
1.50509e-07
1.11601e-07
1.07592e-07
-1.631e-05
1.56716e-05
2.83087e-06
7.04352e-07
2.53426e-07
1.81354e-07
1.65464e-07
1.62524e-07
1.61799e-07
1.61643e-07
1.61593e-07
1.6157e-07
1.61469e-07
1.61357e-07
1.60475e-07
1.59799e-07
1.53286e-07
1.50509e-07
1.11601e-07
1.07591e-07
-1.62943e-05
1.56474e-05
2.82266e-06
7.03124e-07
2.5316e-07
1.81311e-07
1.65454e-07
1.62522e-07
1.61798e-07
1.61643e-07
1.61593e-07
1.6157e-07
1.61469e-07
1.61357e-07
1.60474e-07
1.59798e-07
1.53286e-07
1.50509e-07
1.11601e-07
1.07591e-07
-1.62918e-05
1.56435e-05
2.82133e-06
7.02912e-07
2.53112e-07
1.81303e-07
1.65452e-07
1.62522e-07
1.61798e-07
1.61643e-07
1.61593e-07
1.6157e-07
1.61469e-07
1.61357e-07
1.60474e-07
1.59798e-07
1.53286e-07
1.50509e-07
1.11601e-07
1.07591e-07
-1.62846e-05
1.56328e-05
2.81768e-06
7.02362e-07
2.52991e-07
1.81283e-07
1.65448e-07
1.62521e-07
1.61798e-07
1.61643e-07
1.61593e-07
1.6157e-07
1.61469e-07
1.61357e-07
1.60474e-07
1.59798e-07
1.53286e-07
1.50509e-07
1.11601e-07
1.07591e-07
-1.62836e-05
1.56312e-05
2.81713e-06
7.02274e-07
2.52971e-07
1.81279e-07
1.65447e-07
1.62521e-07
1.61798e-07
1.61643e-07
1.61593e-07
1.6157e-07
1.61469e-07
1.61357e-07
1.60474e-07
1.59798e-07
1.53286e-07
1.50509e-07
1.11601e-07
1.07591e-07
-1.62816e-05
1.56282e-05
2.8161e-06
7.02119e-07
2.52937e-07
1.81274e-07
1.65445e-07
1.62521e-07
1.61798e-07
1.61643e-07
1.61593e-07
1.6157e-07
1.61469e-07
1.61357e-07
1.60474e-07
1.59798e-07
1.53286e-07
1.50509e-07
1.11601e-07
1.07591e-07
-1.62816e-05
1.56282e-05
2.8161e-06
7.02119e-07
2.52937e-07
1.81274e-07
1.65445e-07
1.62521e-07
1.61798e-07
1.61643e-07
1.61593e-07
1.6157e-07
1.61469e-07
1.61357e-07
1.60474e-07
1.59798e-07
1.53286e-07
1.50509e-07
1.11601e-07
1.07591e-07
-1.62836e-05
1.56312e-05
2.81713e-06
7.02274e-07
2.52971e-07
1.81279e-07
1.65447e-07
1.62521e-07
1.61798e-07
1.61643e-07
1.61593e-07
1.6157e-07
1.61469e-07
1.61357e-07
1.60474e-07
1.59798e-07
1.53286e-07
1.50509e-07
1.11601e-07
1.07591e-07
-1.62846e-05
1.56328e-05
2.81768e-06
7.02362e-07
2.52991e-07
1.81283e-07
1.65448e-07
1.62521e-07
1.61798e-07
1.61643e-07
1.61593e-07
1.6157e-07
1.61469e-07
1.61357e-07
1.60474e-07
1.59798e-07
1.53286e-07
1.50509e-07
1.11601e-07
1.07591e-07
-1.62918e-05
1.56435e-05
2.82133e-06
7.02912e-07
2.53112e-07
1.81303e-07
1.65452e-07
1.62522e-07
1.61798e-07
1.61643e-07
1.61593e-07
1.6157e-07
1.61469e-07
1.61357e-07
1.60474e-07
1.59798e-07
1.53286e-07
1.50509e-07
1.11601e-07
1.07591e-07
-1.62943e-05
1.56474e-05
2.82266e-06
7.03124e-07
2.5316e-07
1.81311e-07
1.65454e-07
1.62522e-07
1.61798e-07
1.61643e-07
1.61593e-07
1.6157e-07
1.61469e-07
1.61357e-07
1.60474e-07
1.59798e-07
1.53286e-07
1.50509e-07
1.11601e-07
1.07591e-07
-1.631e-05
1.56716e-05
2.83087e-06
7.04352e-07
2.53426e-07
1.81354e-07
1.65464e-07
1.62524e-07
1.61799e-07
1.61643e-07
1.61593e-07
1.6157e-07
1.61469e-07
1.61357e-07
1.60475e-07
1.59799e-07
1.53286e-07
1.50509e-07
1.11601e-07
1.07591e-07
-1.63147e-05
1.56786e-05
2.83333e-06
7.04738e-07
2.53512e-07
1.81368e-07
1.65467e-07
1.62525e-07
1.61799e-07
1.61644e-07
1.61593e-07
1.6157e-07
1.61469e-07
1.61357e-07
1.60475e-07
1.59799e-07
1.53286e-07
1.50509e-07
1.11601e-07
1.07592e-07
-1.63432e-05
1.57299e-05
2.84902e-06
7.06821e-07
2.53906e-07
1.81417e-07
1.65478e-07
1.62527e-07
1.618e-07
1.61645e-07
1.61594e-07
1.61571e-07
1.61471e-07
1.61359e-07
1.60477e-07
1.59802e-07
1.53293e-07
1.50516e-07
1.11613e-07
1.07598e-07
-1.63491e-05
1.57394e-05
2.85192e-06
7.07208e-07
2.5398e-07
1.81426e-07
1.65479e-07
1.62527e-07
1.61801e-07
1.61645e-07
1.61594e-07
1.61571e-07
1.61471e-07
1.61359e-07
1.60478e-07
1.59803e-07
1.53295e-07
1.50518e-07
1.11616e-07
1.076e-07
-1.62794e-05
1.57785e-05
2.83663e-06
7.01969e-07
2.5268e-07
1.81106e-07
1.65421e-07
1.62527e-07
1.61817e-07
1.61665e-07
1.61616e-07
1.61593e-07
1.61495e-07
1.61386e-07
1.60519e-07
1.59851e-07
1.53415e-07
1.50644e-07
1.11916e-07
1.07812e-07
-1.58945e-05
1.59489e-05
2.86223e-06
7.07441e-07
2.53647e-07
1.8133e-07
1.65449e-07
1.6262e-07
1.61908e-07
1.61754e-07
1.61704e-07
1.61681e-07
1.61582e-07
1.6147e-07
1.60564e-07
1.59833e-07
1.53333e-07
1.50537e-07
1.11321e-07
1.07188e-07
-1.59592e-05
1.59097e-05
2.8777e-06
7.12739e-07
2.54962e-07
1.81653e-07
1.65509e-07
1.62619e-07
1.61892e-07
1.61734e-07
1.61682e-07
1.61659e-07
1.61557e-07
1.61444e-07
1.60522e-07
1.59784e-07
1.53212e-07
1.50409e-07
1.11017e-07
1.06972e-07
-1.59532e-05
1.59002e-05
2.87477e-06
7.12348e-07
2.54888e-07
1.81644e-07
1.65507e-07
1.62619e-07
1.61892e-07
1.61734e-07
1.61682e-07
1.61659e-07
1.61557e-07
1.61444e-07
1.60521e-07
1.59783e-07
1.5321e-07
1.50407e-07
1.11014e-07
1.0697e-07