/*--------------------------------*- C++ -*----------------------------------*\
  =========                 |
  \\      /  F ield         | OpenFOAM: The Open Source CFD Toolbox
   \\    /   O peration     | Website:  https://openfoam.org
    \\  /    A nd           | Version:  8
     \\/     M anipulation  |
\*---------------------------------------------------------------------------*/
FoamFile
{
    version     2.0;
    format      ascii;
    class       volScalarField;
    location    "4.4";
    object      p;
}
// * * * * * * * * * * * * * * * * * * * * * * * * * * * * * * * * * * * * * //

dimensions      [0 2 -2 0 0 0 0];

internalField   nonuniform List<scalar> 
180000
(
0.000902685
0.000841698
0.000880026
0.000749722
0.000818714
0.000888114
0.00082736
0.000865403
0.000736431
0.000804276
0.000887267
0.000826551
0.000864556
0.000735724
0.000803478
0.00088293
0.000822382
0.000860203
0.000732046
0.000799394
0.000882331
0.000821811
0.000859599
0.000731546
0.000798828
0.000880321
0.000819892
0.000857577
0.000729862
0.000796935
0.000879979
0.000819567
0.000857232
0.000729576
0.00079661
0.000879055
0.000818686
0.000856299
0.000728802
0.000795737
0.000878907
0.000818545
0.00085615
0.000728678
0.000795596
0.000878638
0.000818289
0.000855879
0.000728453
0.000795342
0.000878638
0.000818289
0.000855879
0.000728453
0.000795342
0.000878907
0.000818545
0.00085615
0.000728678
0.000795596
0.000879055
0.000818686
0.000856299
0.000728802
0.000795737
0.000879979
0.000819567
0.000857232
0.000729576
0.00079661
0.000880321
0.000819892
0.000857577
0.000729862
0.000796935
0.000882331
0.000821811
0.000859599
0.000731546
0.000798828
0.00088293
0.000822382
0.000860203
0.000732046
0.000799394
0.000887267
0.000826551
0.000864556
0.000735724
0.000803478
0.000888114
0.00082736
0.000865403
0.000736431
0.000804276
0.000902685
0.000841698
0.000880026
0.000749722
0.000818714
0.000735717
0.000707587
0.000726202
0.000657312
0.000696468
0.000729389
0.000700462
0.000719509
0.000649523
0.000688953
0.000729013
0.000700052
0.000719113
0.000649101
0.00068853
0.000727045
0.000697898
0.000717035
0.000646872
0.000686323
0.000726773
0.000697603
0.000716747
0.00064657
0.000686018
0.000725853
0.000696604
0.000715773
0.000645543
0.000684988
0.000725697
0.000696436
0.000715607
0.00064537
0.000684812
0.000725271
0.000695975
0.000715157
0.000644897
0.000684335
0.000725204
0.000695902
0.000715085
0.000644822
0.000684258
0.00072508
0.000695768
0.000714953
0.000644684
0.000684119
0.00072508
0.000695768
0.000714953
0.000644684
0.000684119
0.000725204
0.000695902
0.000715085
0.000644822
0.000684258
0.000725271
0.000695975
0.000715157
0.000644897
0.000684335
0.000725697
0.000696436
0.000715607
0.00064537
0.000684812
0.000725853
0.000696604
0.000715773
0.000645543
0.000684988
0.000726773
0.000697603
0.000716747
0.00064657
0.000686018
0.000727045
0.000697898
0.000717035
0.000646872
0.000686323
0.000729013
0.000700052
0.000719113
0.000649101
0.00068853
0.000729389
0.000700462
0.000719509
0.000649523
0.000688953
0.000735717
0.000707587
0.000726202
0.000657312
0.000696468
0.000528216
0.000505835
0.000521095
0.000467184
0.000500158
0.000523122
0.000500377
0.00051582
0.000461518
0.00049447
0.000522819
0.000500062
0.000515507
0.000461209
0.000494148
0.000521205
0.000498376
0.000513836
0.000459544
0.000492435
0.000520985
0.000498148
0.000513607
0.00045932
0.0004922
0.000520231
0.000497367
0.000512825
0.000458554
0.000491401
0.000520105
0.000497237
0.000512693
0.000458425
0.000491265
0.000519757
0.000496877
0.000512332
0.000458073
0.000490896
0.000519703
0.00049682
0.000512275
0.000458017
0.000490837
0.000519601
0.000496716
0.000512169
0.000457914
0.000490729
0.000519601
0.000496716
0.000512169
0.000457914
0.000490729
0.000519703
0.00049682
0.000512275
0.000458017
0.000490837
0.000519757
0.000496877
0.000512332
0.000458073
0.000490896
0.000520105
0.000497237
0.000512693
0.000458425
0.000491265
0.000520231
0.000497367
0.000512825
0.000458554
0.000491401
0.000520985
0.000498148
0.000513607
0.00045932
0.0004922
0.000521205
0.000498376
0.000513836
0.000459544
0.000492435
0.000522819
0.000500062
0.000515507
0.000461209
0.000494148
0.000523122
0.000500377
0.00051582
0.000461518
0.00049447
0.000528216
0.000505835
0.000521095
0.000467184
0.000500158
0.000493837
0.000467631
0.000485597
0.000424868
0.000464202
0.000487751
0.000461469
0.000479432
0.00041891
0.00045791
0.000487388
0.000461112
0.000479066
0.000418583
0.00045755
0.000485456
0.000459196
0.000477106
0.00041681
0.000455633
0.000485193
0.000458938
0.000476838
0.000416573
0.000455371
0.000484294
0.000458054
0.000475924
0.000415759
0.000454479
0.000484143
0.000457906
0.00047577
0.000415623
0.000454328
0.000483729
0.000457499
0.000475349
0.000415248
0.000453916
0.000483664
0.000457435
0.000475282
0.000415189
0.000453851
0.000483543
0.000457317
0.000475159
0.00041508
0.000453731
0.000483543
0.000457317
0.000475159
0.00041508
0.000453731
0.000483664
0.000457435
0.000475282
0.000415189
0.000453851
0.000483729
0.000457499
0.000475349
0.000415248
0.000453916
0.000484143
0.000457906
0.00047577
0.000415623
0.000454328
0.000484294
0.000458054
0.000475924
0.000415759
0.000454479
0.000485193
0.000458938
0.000476838
0.000416573
0.000455371
0.000485456
0.000459196
0.000477106
0.00041681
0.000455633
0.000487388
0.000461112
0.000479066
0.000418583
0.00045755
0.000487751
0.000461469
0.000479432
0.00041891
0.00045791
0.000493837
0.000467631
0.000485597
0.000424868
0.000464202
0.000516878
0.000489175
0.000508515
0.000443622
0.000488553
0.000510466
0.000482679
0.000502019
0.000437352
0.000481943
0.00051008
0.000482299
0.000501628
0.000437004
0.000481559
0.000508013
0.000480249
0.000499532
0.000435109
0.000479507
0.000507731
0.000479973
0.000499246
0.000434856
0.000479226
0.000506769
0.000479026
0.000498267
0.000433985
0.000478271
0.000506608
0.000478868
0.000498103
0.000433839
0.00047811
0.000506165
0.000478433
0.000497651
0.000433439
0.000477668
0.000506095
0.000478364
0.00049758
0.000433376
0.000477598
0.000505966
0.000478238
0.000497449
0.000433259
0.00047747
0.000505966
0.000478238
0.000497449
0.000433259
0.00047747
0.000506095
0.000478364
0.00049758
0.000433376
0.000477598
0.000506165
0.000478433
0.000497651
0.000433439
0.000477668
0.000506608
0.000478868
0.000498103
0.000433839
0.00047811
0.000506769
0.000479026
0.000498267
0.000433985
0.000478271
0.000507731
0.000479973
0.000499246
0.000434856
0.000479226
0.000508013
0.000480249
0.000499532
0.000435109
0.000479507
0.00051008
0.000482299
0.000501628
0.000437004
0.000481559
0.000510466
0.000482679
0.000502019
0.000437352
0.000481943
0.000516878
0.000489175
0.000508515
0.000443622
0.000488553
0.000529663
0.000502539
0.000521963
0.000457154
0.000505695
0.000523437
0.000496184
0.000515639
0.000450959
0.00049923
0.000523057
0.000495808
0.000515254
0.000450611
0.000498848
0.000521008
0.000493762
0.00051317
0.0004487
0.000496789
0.00052073
0.000493487
0.000512887
0.000448446
0.000496509
0.000519775
0.00049254
0.000511913
0.000447566
0.00049555
0.000519615
0.000492383
0.00051175
0.00044742
0.000495388
0.000519175
0.000491947
0.0005113
0.000447015
0.000494945
0.000519106
0.000491879
0.00051123
0.000446952
0.000494875
0.000518978
0.000491752
0.000511099
0.000446834
0.000494745
0.000518978
0.000491752
0.000511099
0.000446834
0.000494745
0.000519106
0.000491879
0.00051123
0.000446952
0.000494875
0.000519175
0.000491947
0.0005113
0.000447015
0.000494945
0.000519615
0.000492383
0.00051175
0.00044742
0.000495388
0.000519775
0.00049254
0.000511913
0.000447566
0.00049555
0.00052073
0.000493487
0.000512887
0.000448446
0.000496509
0.000521008
0.000493762
0.00051317
0.0004487
0.000496789
0.000523057
0.000495808
0.000515254
0.000450611
0.000498848
0.000523437
0.000496184
0.000515639
0.000450959
0.00049923
0.000529663
0.000502539
0.000521963
0.000457154
0.000505695
0.000529582
0.000503209
0.000522586
0.000458653
0.000510477
0.00052357
0.000497061
0.000516476
0.00045264
0.000504228
0.000523198
0.000496692
0.0005161
0.000452298
0.000503853
0.000521179
0.000494672
0.000514046
0.000450404
0.000501813
0.000520906
0.000494402
0.000513768
0.000450153
0.000501536
0.000519964
0.000493467
0.000512807
0.00044928
0.000500584
0.000519807
0.000493311
0.000512646
0.000449135
0.000500424
0.000519373
0.000492881
0.000512202
0.000448734
0.000499984
0.000519305
0.000492814
0.000512133
0.000448671
0.000499915
0.000519179
0.000492689
0.000512004
0.000448554
0.000499787
0.000519179
0.000492689
0.000512004
0.000448554
0.000499787
0.000519305
0.000492814
0.000512133
0.000448671
0.000499915
0.000519373
0.000492881
0.000512202
0.000448734
0.000499984
0.000519807
0.000493311
0.000512646
0.000449135
0.000500424
0.000519964
0.000493467
0.000512807
0.00044928
0.000500584
0.000520906
0.000494402
0.000513768
0.000450153
0.000501536
0.000521179
0.000494672
0.000514046
0.000450404
0.000501813
0.000523198
0.000496692
0.0005161
0.000452298
0.000503853
0.00052357
0.000497061
0.000516476
0.00045264
0.000504228
0.000529582
0.000503209
0.000522586
0.000458653
0.000510477
0.000526953
0.000500994
0.000520517
0.000457002
0.000512161
0.000521067
0.000494985
0.000514542
0.000451132
0.000506063
0.0005207
0.000494621
0.00051417
0.000450794
0.000505691
0.000518687
0.00049261
0.000512124
0.000448908
0.000503654
0.000518416
0.000492342
0.000511848
0.000448659
0.000503378
0.000517476
0.000491409
0.00051089
0.000447789
0.000502426
0.00051732
0.000491255
0.00051073
0.000447645
0.000502267
0.000516887
0.000490826
0.000510288
0.000447244
0.000501827
0.000516819
0.00049076
0.000510218
0.000447182
0.000501758
0.000516693
0.000490635
0.000510089
0.000447065
0.00050163
0.000516693
0.000490635
0.000510089
0.000447065
0.00050163
0.000516819
0.00049076
0.000510218
0.000447182
0.000501758
0.000516887
0.000490826
0.000510288
0.000447244
0.000501827
0.00051732
0.000491255
0.00051073
0.000447645
0.000502267
0.000517476
0.000491409
0.00051089
0.000447789
0.000502426
0.000518416
0.000492342
0.000511848
0.000448659
0.000503378
0.000518687
0.00049261
0.000512124
0.000448908
0.000503654
0.0005207
0.000494621
0.00051417
0.000450794
0.000505691
0.000521067
0.000494985
0.000514542
0.000451132
0.000506063
0.000526953
0.000500994
0.000520517
0.000457002
0.000512161
0.000525712
0.000500023
0.000519772
0.000456446
0.000514586
0.000519919
0.000494117
0.000513897
0.000450684
0.000508597
0.000519554
0.000493756
0.000513528
0.000450349
0.000508227
0.000517539
0.000491744
0.00051148
0.000448463
0.000506184
0.000517268
0.000491477
0.000511204
0.000448214
0.000505908
0.000516326
0.000490543
0.000510244
0.000447342
0.000504952
0.00051617
0.00049039
0.000510085
0.000447199
0.000504793
0.000515736
0.00048996
0.000509641
0.000446797
0.000504351
0.000515668
0.000489893
0.000509572
0.000446735
0.000504282
0.000515542
0.000489768
0.000509443
0.000446618
0.000504153
0.000515542
0.000489768
0.000509443
0.000446618
0.000504153
0.000515668
0.000489893
0.000509572
0.000446735
0.000504282
0.000515736
0.00048996
0.000509641
0.000446797
0.000504351
0.00051617
0.00049039
0.000510085
0.000447199
0.000504793
0.000516326
0.000490543
0.000510244
0.000447342
0.000504952
0.000517268
0.000491477
0.000511204
0.000448214
0.000505908
0.000517539
0.000491744
0.00051148
0.000448463
0.000506184
0.000519554
0.000493756
0.000513528
0.000450349
0.000508227
0.000519919
0.000494117
0.000513897
0.000450684
0.000508597
0.000525712
0.000500023
0.000519772
0.000456446
0.000514586
0.000525409
0.000499992
0.000519955
0.000456885
0.000517303
0.000519712
0.000494189
0.000514181
0.000451224
0.00051141
0.000519349
0.000493831
0.000513814
0.000450891
0.000511042
0.000517333
0.000491819
0.000511766
0.000449003
0.000508992
0.000517063
0.000491553
0.000511491
0.000448755
0.000508716
0.000516118
0.000490618
0.00051053
0.000447882
0.000507757
0.000515963
0.000490464
0.000510371
0.000447738
0.000507597
0.000515527
0.000490034
0.000509926
0.000447336
0.000507153
0.00051546
0.000489967
0.000509857
0.000447274
0.000507084
0.000515333
0.000489842
0.000509728
0.000447157
0.000506955
0.000515333
0.000489842
0.000509728
0.000447157
0.000506955
0.00051546
0.000489967
0.000509857
0.000447274
0.000507084
0.000515527
0.000490034
0.000509926
0.000447336
0.000507153
0.000515963
0.000490464
0.000510371
0.000447738
0.000507597
0.000516118
0.000490618
0.00051053
0.000447882
0.000507757
0.000517063
0.000491553
0.000511491
0.000448755
0.000508716
0.000517333
0.000491819
0.000511766
0.000449003
0.000508992
0.000519349
0.000493831
0.000513814
0.000450891
0.000511042
0.000519712
0.000494189
0.000514181
0.000451224
0.00051141
0.000525409
0.000499992
0.000519955
0.000456885
0.000517303
0.000525201
0.000500076
0.000520227
0.000457524
0.000519166
0.000519604
0.000494379
0.000514558
0.000451966
0.000513358
0.000519244
0.000494023
0.000514194
0.000451635
0.000512991
0.000517229
0.000492014
0.000512148
0.000449747
0.000510936
0.00051696
0.000491748
0.000511874
0.000449499
0.000510661
0.000516015
0.000490813
0.000510912
0.000448624
0.000509697
0.00051586
0.00049066
0.000510754
0.000448481
0.000509537
0.000515424
0.000490229
0.000510309
0.000448078
0.000509092
0.000515357
0.000490163
0.00051024
0.000448016
0.000509022
0.00051523
0.000490037
0.000510111
0.000447899
0.000508892
0.00051523
0.000490037
0.000510111
0.000447899
0.000508892
0.000515357
0.000490163
0.00051024
0.000448016
0.000509022
0.000515424
0.000490229
0.000510309
0.000448078
0.000509092
0.00051586
0.00049066
0.000510754
0.000448481
0.000509537
0.000516015
0.000490813
0.000510912
0.000448624
0.000509697
0.00051696
0.000491748
0.000511874
0.000449499
0.000510661
0.000517229
0.000492014
0.000512148
0.000449747
0.000510936
0.000519244
0.000494023
0.000514194
0.000451635
0.000512991
0.000519604
0.000494379
0.000514558
0.000451966
0.000513358
0.000525201
0.000500076
0.000520227
0.000457524
0.000519166
0.000524879
0.000500041
0.000520368
0.000458061
0.000517965
0.000519382
0.000494449
0.000514804
0.000452604
0.000512255
0.000519025
0.000494097
0.000514443
0.000452275
0.000511891
0.000517012
0.000492091
0.0005124
0.000450388
0.00050984
0.000516744
0.000491826
0.000512127
0.000450141
0.000509566
0.000515798
0.000490891
0.000511165
0.000449265
0.000508602
0.000515644
0.000490738
0.000511007
0.000449122
0.000508443
0.000515207
0.000490307
0.000510562
0.000448719
0.000507997
0.000515141
0.000490241
0.000510493
0.000448657
0.000507928
0.000515014
0.000490116
0.000510364
0.000448539
0.000507798
0.000515014
0.000490116
0.000510364
0.000448539
0.000507798
0.000515141
0.000490241
0.000510493
0.000448657
0.000507928
0.000515207
0.000490307
0.000510562
0.000448719
0.000507997
0.000515644
0.000490738
0.000511007
0.000449122
0.000508443
0.000515798
0.000490891
0.000511165
0.000449265
0.000508602
0.000516744
0.000491826
0.000512127
0.000450141
0.000509566
0.000517012
0.000492091
0.0005124
0.000450388
0.00050984
0.000519025
0.000494097
0.000514443
0.000452275
0.000511891
0.000519382
0.000494449
0.000514804
0.000452604
0.000512255
0.000524879
0.000500041
0.000520368
0.000458061
0.000517965
0.000524518
0.000499954
0.000520451
0.000458467
0.00051589
0.000519117
0.000494465
0.000514988
0.00045311
0.000510284
0.000518763
0.000494116
0.00051463
0.000452784
0.000509923
0.000516753
0.000492113
0.000512591
0.000450899
0.000507878
0.000516486
0.000491849
0.000512319
0.000450652
0.000507605
0.00051554
0.000490914
0.000511356
0.000449775
0.000506643
0.000515386
0.000490762
0.000511199
0.000449633
0.000506484
0.000514949
0.000490331
0.000510754
0.000449228
0.000506039
0.000514882
0.000490265
0.000510685
0.000449167
0.00050597
0.000514755
0.000490139
0.000510555
0.000449049
0.00050584
0.000514755
0.000490139
0.000510555
0.000449049
0.00050584
0.000514882
0.000490265
0.000510685
0.000449167
0.00050597
0.000514949
0.000490331
0.000510754
0.000449228
0.000506039
0.000515386
0.000490762
0.000511199
0.000449633
0.000506484
0.00051554
0.000490914
0.000511356
0.000449775
0.000506643
0.000516486
0.000491849
0.000512319
0.000450652
0.000507605
0.000516753
0.000492113
0.000512591
0.000450899
0.000507878
0.000518763
0.000494116
0.00051463
0.000452784
0.000509923
0.000519117
0.000494465
0.000514988
0.00045311
0.000510284
0.000524518
0.000499954
0.000520451
0.000458467
0.000515891
0.00052418
0.000499879
0.000520539
0.000458791
0.000514076
0.000518874
0.00049449
0.000515176
0.000453532
0.000508569
0.000518522
0.000494143
0.000514821
0.000453209
0.000508212
0.000516515
0.000492144
0.000512784
0.000451325
0.000506173
0.000516248
0.000491881
0.000512513
0.00045108
0.000505902
0.000515302
0.000490946
0.000511551
0.000450202
0.00050494
0.000515149
0.000490794
0.000511394
0.00045006
0.000504782
0.000514712
0.000490363
0.000510948
0.000449655
0.000504337
0.000514645
0.000490297
0.00051088
0.000449593
0.000504268
0.000514518
0.000490172
0.00051075
0.000449475
0.000504139
0.000514518
0.000490172
0.00051075
0.000449475
0.000504139
0.000514645
0.000490297
0.00051088
0.000449593
0.000504268
0.000514712
0.000490363
0.000510948
0.000449655
0.000504337
0.000515149
0.000490794
0.000511394
0.00045006
0.000504782
0.000515302
0.000490946
0.000511551
0.000450202
0.00050494
0.000516248
0.000491881
0.000512513
0.00045108
0.000505902
0.000516515
0.000492144
0.000512784
0.000451325
0.000506173
0.000518522
0.000494143
0.000514821
0.000453209
0.000508212
0.000518874
0.00049449
0.000515176
0.000453532
0.000508569
0.00052418
0.000499879
0.000520539
0.000458791
0.000514076
0.000523874
0.000499826
0.000520644
0.000459055
0.000512525
0.000518659
0.000494534
0.000515377
0.000453892
0.000507114
0.00051831
0.00049419
0.000515025
0.000453571
0.00050676
0.000516306
0.000492194
0.000512993
0.00045169
0.000504727
0.00051604
0.000491932
0.000512723
0.000451445
0.000504457
0.000515094
0.000490997
0.00051176
0.000450567
0.000503496
0.000514941
0.000490846
0.000511603
0.000450425
0.000503339
0.000514503
0.000490414
0.000511158
0.00045002
0.000502894
0.000514437
0.000490349
0.00051109
0.000449958
0.000502825
0.00051431
0.000490223
0.00051096
0.00044984
0.000502695
0.00051431
0.000490223
0.00051096
0.00044984
0.000502695
0.000514437
0.000490349
0.00051109
0.000449958
0.000502825
0.000514503
0.000490414
0.000511158
0.00045002
0.000502894
0.000514941
0.000490846
0.000511603
0.000450425
0.000503339
0.000515094
0.000490997
0.00051176
0.000450567
0.000503496
0.00051604
0.000491932
0.000512723
0.000451445
0.000504457
0.000516306
0.000492194
0.000512993
0.00045169
0.000504727
0.00051831
0.00049419
0.000515025
0.000453571
0.00050676
0.000518659
0.000494534
0.000515377
0.000453892
0.000507114
0.000523874
0.000499826
0.000520644
0.000459055
0.000512525
0.000523589
0.000499786
0.000520759
0.000459259
0.000511037
0.000518465
0.000494589
0.000515587
0.000454191
0.000505719
0.000518118
0.000494248
0.000515237
0.000453872
0.000505369
0.000516117
0.000492256
0.000513209
0.000451994
0.000503342
0.000515853
0.000491996
0.00051294
0.00045175
0.000503073
0.000514906
0.00049106
0.000511977
0.000450871
0.000502113
0.000514754
0.00049091
0.000511821
0.00045073
0.000501956
0.000514316
0.000490478
0.000511375
0.000450325
0.000501511
0.00051425
0.000490413
0.000511307
0.000450263
0.000501443
0.000514122
0.000490287
0.000511177
0.000450145
0.000501314
0.000514122
0.000490287
0.000511177
0.000450145
0.000501314
0.00051425
0.000490413
0.000511307
0.000450263
0.000501443
0.000514316
0.000490478
0.000511375
0.000450325
0.000501511
0.000514754
0.00049091
0.000511821
0.00045073
0.000501956
0.000514906
0.00049106
0.000511977
0.000450871
0.000502113
0.000515853
0.000491996
0.00051294
0.00045175
0.000503073
0.000516117
0.000492256
0.000513209
0.000451994
0.000503342
0.000518118
0.000494248
0.000515237
0.000453872
0.000505369
0.000518465
0.000494589
0.000515587
0.000454191
0.000505719
0.000523589
0.000499786
0.000520759
0.000459259
0.000511037
0.000523323
0.000499756
0.000520881
0.0004594
0.000509542
0.000518287
0.000494652
0.000515801
0.000454425
0.000504316
0.000517942
0.000494313
0.000515454
0.000454109
0.000503969
0.000515945
0.000492326
0.000513429
0.000452234
0.000501949
0.000515682
0.000492066
0.000513162
0.000451992
0.000501681
0.000514735
0.000491131
0.000512199
0.000451113
0.000500722
0.000514583
0.000490981
0.000512043
0.000450972
0.000500566
0.000514145
0.000490549
0.000511597
0.000450566
0.000500121
0.000514079
0.000490484
0.00051153
0.000450505
0.000500053
0.000513951
0.000490359
0.0005114
0.000450387
0.000499924
0.000513951
0.000490359
0.0005114
0.000450387
0.000499924
0.000514079
0.000490484
0.00051153
0.000450505
0.000500053
0.000514145
0.000490549
0.000511597
0.000450566
0.000500121
0.000514583
0.000490981
0.000512043
0.000450972
0.000500566
0.000514735
0.000491131
0.000512199
0.000451113
0.000500722
0.000515682
0.000492066
0.000513162
0.000451992
0.000501681
0.000515945
0.000492326
0.000513429
0.000452234
0.000501949
0.000517942
0.000494313
0.000515454
0.000454109
0.000503969
0.000518287
0.000494652
0.000515801
0.000454425
0.000504316
0.000523323
0.000499756
0.000520881
0.0004594
0.000509542
0.000523073
0.000499735
0.00052101
0.000459478
0.000508054
0.000518124
0.000494722
0.00051602
0.000454595
0.000502916
0.000517782
0.000494386
0.000515676
0.000454281
0.000502571
0.000515788
0.000492403
0.000513656
0.000452411
0.000500559
0.000515526
0.000492144
0.000513389
0.000452169
0.000500292
0.000514579
0.000491209
0.000512427
0.000451291
0.000499334
0.000514427
0.00049106
0.000512272
0.00045115
0.000499178
0.000513989
0.000490628
0.000511826
0.000450744
0.000498734
0.000513923
0.000490563
0.000511758
0.000450684
0.000498666
0.000513796
0.000490437
0.000511628
0.000450565
0.000498537
0.000513796
0.000490437
0.000511628
0.000450565
0.000498537
0.000513923
0.000490563
0.000511758
0.000450684
0.000498666
0.000513989
0.000490628
0.000511826
0.000450744
0.000498734
0.000514427
0.00049106
0.000512272
0.00045115
0.000499178
0.000514579
0.000491209
0.000512427
0.000451291
0.000499334
0.000515526
0.000492144
0.000513389
0.000452169
0.000500292
0.000515788
0.000492403
0.000513656
0.000452411
0.000500559
0.000517782
0.000494386
0.000515676
0.000454281
0.000502571
0.000518124
0.000494722
0.000516021
0.000454595
0.000502916
0.000523073
0.000499735
0.00052101
0.000459478
0.000508054
0.000522841
0.000499724
0.000521148
0.000459495
0.000506583
0.000517976
0.0004948
0.000516248
0.000454702
0.000501532
0.000517636
0.000494466
0.000515905
0.000454391
0.00050119
0.000515648
0.000492488
0.000513891
0.000452526
0.000499185
0.000515386
0.000492231
0.000513625
0.000452285
0.000498919
0.000514439
0.000491295
0.000512662
0.000451407
0.000497962
0.000514288
0.000491146
0.000512508
0.000451267
0.000497807
0.00051385
0.000490714
0.000512061
0.000450861
0.000497363
0.000513784
0.00049065
0.000511994
0.0004508
0.000497296
0.000513656
0.000490524
0.000511864
0.000450682
0.000497167
0.000513656
0.000490524
0.000511864
0.000450682
0.000497167
0.000513784
0.00049065
0.000511994
0.0004508
0.000497296
0.00051385
0.000490714
0.000512061
0.000450861
0.000497363
0.000514288
0.000491146
0.000512508
0.000451267
0.000497807
0.000514439
0.000491295
0.000512662
0.000451407
0.000497962
0.000515386
0.000492231
0.000513625
0.000452285
0.000498919
0.000515648
0.000492488
0.000513891
0.000452526
0.000499185
0.000517636
0.000494466
0.000515905
0.000454391
0.00050119
0.000517976
0.0004948
0.000516248
0.000454702
0.000501532
0.000522841
0.000499724
0.000521148
0.000459495
0.000506583
0.000522627
0.000499723
0.000521297
0.000459451
0.000505066
0.000517844
0.000494886
0.000516484
0.000454747
0.0005001
0.000517507
0.000494554
0.000516144
0.000454438
0.000499761
0.000515522
0.000492581
0.000514134
0.000452579
0.000497763
0.000515262
0.000492325
0.000513869
0.000452339
0.000497499
0.000514315
0.00049139
0.000512907
0.000451461
0.000496543
0.000514164
0.000491242
0.000512753
0.000451321
0.000496389
0.000513726
0.00049081
0.000512307
0.000450916
0.000495945
0.000513661
0.000490745
0.00051224
0.000450855
0.000495878
0.000513533
0.00049062
0.00051211
0.000450737
0.000495749
0.000513533
0.00049062
0.00051211
0.000450737
0.000495749
0.000513661
0.000490745
0.00051224
0.000450855
0.000495878
0.000513726
0.00049081
0.000512307
0.000450916
0.000495945
0.000514164
0.000491242
0.000512753
0.000451321
0.000496389
0.000514315
0.00049139
0.000512907
0.000451461
0.000496543
0.000515262
0.000492325
0.000513869
0.000452339
0.000497499
0.000515522
0.000492581
0.000514134
0.000452579
0.000497763
0.000517507
0.000494554
0.000516144
0.000454438
0.000499761
0.000517844
0.000494886
0.000516484
0.000454747
0.0005001
0.000522627
0.000499723
0.000521297
0.000459451
0.000505066
-1.62508e-05
1.57938e-05
2.8195e-06
6.97141e-07
2.50967e-07
1.80706e-07
1.6529e-07
1.62493e-07
1.61806e-07
1.61662e-07
1.61615e-07
1.61593e-07
1.61495e-07
1.61386e-07
1.60519e-07
1.59851e-07
1.53415e-07
1.50644e-07
1.11916e-07
1.07812e-07
-1.63196e-05
1.57541e-05
2.83385e-06
7.02107e-07
2.52186e-07
1.81005e-07
1.65343e-07
1.62492e-07
1.61789e-07
1.61642e-07
1.61593e-07
1.61571e-07
1.61471e-07
1.61359e-07
1.60478e-07
1.59803e-07
1.53295e-07
1.50518e-07
1.11616e-07
1.076e-07
-1.6313e-05
1.57436e-05
2.83054e-06
7.01654e-07
2.52096e-07
1.80994e-07
1.6534e-07
1.62491e-07
1.61789e-07
1.61641e-07
1.61593e-07
1.61571e-07
1.61471e-07
1.61359e-07
1.60477e-07
1.59802e-07
1.53293e-07
1.50516e-07
1.11613e-07
1.07598e-07
-1.62831e-05
1.56908e-05
2.81411e-06
6.99454e-07
2.51666e-07
1.80937e-07
1.65327e-07
1.62489e-07
1.61787e-07
1.6164e-07
1.61592e-07
1.61569e-07
1.61469e-07
1.61357e-07
1.60475e-07
1.59799e-07
1.53286e-07
1.50509e-07
1.11601e-07
1.07592e-07
-1.62775e-05
1.56825e-05
2.81116e-06
6.98992e-07
2.51561e-07
1.8092e-07
1.65323e-07
1.62488e-07
1.61787e-07
1.6164e-07
1.61592e-07
1.61569e-07
1.61469e-07
1.61357e-07
1.60475e-07
1.59799e-07
1.53286e-07
1.50509e-07
1.11601e-07
1.07591e-07
-1.62604e-05
1.56566e-05
2.80225e-06
6.97658e-07
2.51267e-07
1.80872e-07
1.65312e-07
1.62486e-07
1.61786e-07
1.6164e-07
1.61591e-07
1.61569e-07
1.61469e-07
1.61357e-07
1.60474e-07
1.59798e-07
1.53286e-07
1.50509e-07
1.11601e-07
1.07591e-07
-1.62572e-05
1.56519e-05
2.80056e-06
6.97388e-07
2.51204e-07
1.80861e-07
1.65309e-07
1.62485e-07
1.61786e-07
1.6164e-07
1.61591e-07
1.61569e-07
1.61469e-07
1.61357e-07
1.60474e-07
1.59798e-07
1.53286e-07
1.50509e-07
1.11601e-07
1.07591e-07
-1.62492e-05
1.564e-05
2.79644e-06
6.96765e-07
2.51065e-07
1.80838e-07
1.65304e-07
1.62484e-07
1.61786e-07
1.6164e-07
1.61591e-07
1.61569e-07
1.61469e-07
1.61357e-07
1.60474e-07
1.59798e-07
1.53286e-07
1.50509e-07
1.11601e-07
1.07591e-07
-1.62478e-05
1.56379e-05
2.7957e-06
6.96648e-07
2.51038e-07
1.80833e-07
1.65303e-07
1.62484e-07
1.61786e-07
1.6164e-07
1.61591e-07
1.61569e-07
1.61469e-07
1.61357e-07
1.60474e-07
1.59798e-07
1.53286e-07
1.50509e-07
1.11601e-07
1.07591e-07
-1.62454e-05
1.56345e-05
2.79451e-06
6.96468e-07
2.50997e-07
1.80827e-07
1.65301e-07
1.62484e-07
1.61786e-07
1.6164e-07
1.61591e-07
1.61569e-07
1.61469e-07
1.61357e-07
1.60474e-07
1.59798e-07
1.53286e-07
1.50509e-07
1.11601e-07
1.07591e-07
-1.62454e-05
1.56345e-05
2.79451e-06
6.96468e-07
2.50997e-07
1.80827e-07
1.65301e-07
1.62484e-07
1.61786e-07
1.6164e-07
1.61591e-07
1.61569e-07
1.61469e-07
1.61357e-07
1.60474e-07
1.59798e-07
1.53286e-07
1.50509e-07
1.11601e-07
1.07591e-07
-1.62478e-05
1.56379e-05
2.7957e-06
6.96648e-07
2.51038e-07
1.80833e-07
1.65303e-07
1.62484e-07
1.61786e-07
1.6164e-07
1.61591e-07
1.61569e-07
1.61469e-07
1.61357e-07
1.60474e-07
1.59798e-07
1.53286e-07
1.50509e-07
1.11601e-07
1.07591e-07
-1.62492e-05
1.564e-05
2.79644e-06
6.96765e-07
2.51065e-07
1.80838e-07
1.65304e-07
1.62484e-07
1.61786e-07
1.6164e-07
1.61591e-07
1.61569e-07
1.61469e-07
1.61357e-07
1.60474e-07
1.59798e-07
1.53286e-07
1.50509e-07
1.11601e-07
1.07591e-07
-1.62572e-05
1.56519e-05
2.80056e-06
6.97388e-07
2.51204e-07
1.80861e-07
1.65309e-07
1.62485e-07
1.61786e-07
1.6164e-07
1.61591e-07
1.61569e-07
1.61469e-07
1.61357e-07
1.60474e-07
1.59798e-07
1.53286e-07
1.50509e-07
1.11601e-07
1.07591e-07
-1.62604e-05
1.56566e-05
2.80225e-06
6.97658e-07
2.51267e-07
1.80872e-07
1.65312e-07
1.62486e-07
1.61786e-07
1.6164e-07
1.61591e-07
1.61569e-07
1.61469e-07
1.61357e-07
1.60474e-07
1.59798e-07
1.53286e-07
1.50509e-07
1.11601e-07
1.07591e-07
-1.62775e-05
1.56825e-05
2.81116e-06
6.98992e-07
2.51561e-07
1.8092e-07
1.65323e-07
1.62488e-07
1.61787e-07
1.6164e-07
1.61592e-07
1.61569e-07
1.61469e-07
1.61357e-07
1.60475e-07
1.59799e-07
1.53286e-07
1.50509e-07
1.11601e-07
1.07591e-07
-1.62831e-05
1.56908e-05
2.81411e-06
6.99454e-07
2.51666e-07
1.80937e-07
1.65327e-07
1.62489e-07
1.61787e-07
1.6164e-07
1.61592e-07
1.61569e-07
1.61469e-07
1.61357e-07
1.60475e-07
1.59799e-07
1.53286e-07
1.50509e-07
1.11601e-07
1.07592e-07
-1.6313e-05
1.57436e-05
2.83054e-06
7.01654e-07
2.52096e-07
1.80994e-07
1.6534e-07
1.62491e-07
1.61789e-07
1.61641e-07
1.61593e-07
1.61571e-07
1.61471e-07
1.61359e-07
1.60477e-07
1.59802e-07
1.53293e-07
1.50516e-07
1.11613e-07
1.07598e-07
-1.63196e-05
1.57541e-05
2.83385e-06
7.02107e-07
2.52186e-07
1.81005e-07
1.65343e-07
1.62492e-07
1.61789e-07
1.61642e-07
1.61593e-07
1.61571e-07
1.61471e-07
1.61359e-07
1.60478e-07
1.59803e-07
1.53295e-07
1.50518e-07
1.11616e-07
1.076e-07
-1.62508e-05
1.57938e-05
2.8195e-06
6.97141e-07
2.50967e-07
1.80706e-07
1.6529e-07
1.62493e-07
1.61806e-07
1.61662e-07
1.61615e-07
1.61593e-07
1.61495e-07
1.61386e-07
1.60519e-07
1.59851e-07
1.53415e-07
1.50644e-07
1.11916e-07
1.07812e-07
-1.58666e-05
1.59642e-05
2.84491e-06
7.02562e-07
2.51914e-07
1.80926e-07
1.65316e-07
1.62588e-07
1.61896e-07
1.61751e-07
1.61703e-07
1.61681e-07
1.61582e-07
1.6147e-07
1.60564e-07
1.59833e-07
1.53333e-07
1.50537e-07
1.11321e-07
1.07188e-07
-1.59304e-05
1.59245e-05
2.85942e-06
7.07584e-07
2.53148e-07
1.81229e-07
1.65369e-07
1.62585e-07
1.6188e-07
1.61731e-07
1.61681e-07
1.61659e-07
1.61557e-07
1.61444e-07
1.60522e-07
1.59784e-07
1.53212e-07
1.50409e-07
1.11017e-07
1.06972e-07
-1.59236e-05
1.59139e-05
2.85609e-06
7.07126e-07
2.53056e-07
1.81217e-07
1.65366e-07
1.62585e-07
1.6188e-07
1.6173e-07
1.61681e-07
1.61658e-07
1.61557e-07
1.61444e-07
1.60521e-07
1.59783e-07
1.5321e-07
1.50407e-07
1.11014e-07
1.0697e-07
-1.58929e-05
1.58605e-05
2.8395e-06