/*--------------------------------*- C++ -*----------------------------------*\
  =========                 |
  \\      /  F ield         | OpenFOAM: The Open Source CFD Toolbox
   \\    /   O peration     | Website:  https://openfoam.org
    \\  /    A nd           | Version:  8
     \\/     M anipulation  |
\*---------------------------------------------------------------------------*/
FoamFile
{
    version     2.0;
    format      ascii;
    class       volScalarField;
    location    "4.4";
    object      S1;
}
// * * * * * * * * * * * * * * * * * * * * * * * * * * * * * * * * * * * * * //

dimensions      [0 1 -1 0 0 0 0];

internalField   nonuniform List<scalar> 
180000
(
3.99319e-25
1.05538e-20
2.22768e-16
3.8203e-12
5.42725e-08
4.82854e-25
1.22098e-20
2.51205e-16
4.2291e-12
5.91748e-08
4.83856e-25
1.22291e-20
2.51507e-16
4.23275e-12
5.92063e-08
4.86293e-25
1.2277e-20
2.52266e-16
4.24219e-12
5.92897e-08
4.85772e-25
1.2266e-20
2.52055e-16
4.2387e-12
5.92392e-08
4.84175e-25
1.22329e-20
2.51436e-16
4.22876e-12
5.91e-08
4.8387e-25
1.22265e-20
2.51314e-16
4.22675e-12
5.90711e-08
4.83129e-25
1.2211e-20
2.51023e-16
4.22207e-12
5.90054e-08
4.83011e-25
1.22085e-20
2.50975e-16
4.22128e-12
5.89938e-08
4.82815e-25
1.22044e-20
2.50897e-16
4.22001e-12
5.89758e-08
4.82815e-25
1.22044e-20
2.50897e-16
4.22001e-12
5.89758e-08
4.83011e-25
1.22085e-20
2.50975e-16
4.22128e-12
5.89938e-08
4.83129e-25
1.2211e-20
2.51023e-16
4.22207e-12
5.90054e-08
4.8387e-25
1.22265e-20
2.51314e-16
4.22675e-12
5.90711e-08
4.84175e-25
1.22329e-20
2.51436e-16
4.22876e-12
5.91e-08
4.85772e-25
1.2266e-20
2.52055e-16
4.2387e-12
5.92392e-08
4.86293e-25
1.2277e-20
2.52266e-16
4.24219e-12
5.92897e-08
4.83856e-25
1.22291e-20
2.51507e-16
4.23275e-12
5.92063e-08
4.82854e-25
1.22098e-20
2.51205e-16
4.2291e-12
5.91748e-08
3.99319e-25
1.05538e-20
2.22768e-16
3.8203e-12
5.42725e-08
3.99314e-25
1.05535e-20
2.22753e-16
3.82251e-12
5.84256e-08
4.82848e-25
1.22094e-20
2.51189e-16
4.23136e-12
6.35074e-08
4.8385e-25
1.22287e-20
2.51491e-16
4.23501e-12
6.35368e-08
4.86287e-25
1.22766e-20
2.5225e-16
4.24443e-12
6.36105e-08
4.85766e-25
1.22656e-20
2.52039e-16
4.24094e-12
6.35555e-08
4.84169e-25
1.22325e-20
2.5142e-16
4.23099e-12
6.34034e-08
4.83864e-25
1.22261e-20
2.51298e-16
4.22898e-12
6.33719e-08
4.83123e-25
1.22106e-20
2.51007e-16
4.2243e-12
6.33001e-08
4.83006e-25
1.22081e-20
2.50959e-16
4.22351e-12
6.32874e-08
4.82809e-25
1.2204e-20
2.50881e-16
4.22224e-12
6.32676e-08
4.82809e-25
1.2204e-20
2.50881e-16
4.22224e-12
6.32676e-08
4.83006e-25
1.22081e-20
2.50959e-16
4.22351e-12
6.32874e-08
4.83123e-25
1.22106e-20
2.51007e-16
4.2243e-12
6.33001e-08
4.83864e-25
1.22261e-20
2.51298e-16
4.22898e-12
6.33719e-08
4.84169e-25
1.22325e-20
2.5142e-16
4.23099e-12
6.34034e-08
4.85766e-25
1.22656e-20
2.52039e-16
4.24094e-12
6.35555e-08
4.86287e-25
1.22766e-20
2.5225e-16
4.24443e-12
6.36105e-08
4.8385e-25
1.22287e-20
2.51491e-16
4.23501e-12
6.35368e-08
4.82848e-25
1.22094e-20
2.51189e-16
4.23136e-12
6.35074e-08
3.99314e-25
1.05535e-20
2.22753e-16
3.82251e-12
5.84256e-08
3.99309e-25
1.05529e-20
2.22736e-16
3.83585e-12
7.79989e-08
4.82843e-25
1.22087e-20
2.51169e-16
4.24497e-12
8.36422e-08
4.83845e-25
1.2228e-20
2.51471e-16
4.24861e-12
8.36635e-08
4.86282e-25
1.22758e-20
2.52229e-16
4.25798e-12
8.37072e-08
4.85761e-25
1.22649e-20
2.52019e-16
4.25447e-12
8.36375e-08
4.84164e-25
1.22318e-20
2.514e-16
4.24448e-12
8.34433e-08
4.83859e-25
1.22254e-20
2.51277e-16
4.24246e-12
8.34032e-08
4.83118e-25
1.22099e-20
2.50987e-16
4.23776e-12
8.33113e-08
4.83e-25
1.22074e-20
2.50939e-16
4.23696e-12
8.3295e-08
4.82804e-25
1.22033e-20
2.50861e-16
4.23568e-12
8.32694e-08
4.82804e-25
1.22033e-20
2.50861e-16
4.23568e-12
8.32694e-08
4.83e-25
1.22074e-20
2.50939e-16
4.23696e-12
8.3295e-08
4.83118e-25
1.22099e-20
2.50987e-16
4.23776e-12
8.33113e-08
4.83859e-25
1.22254e-20
2.51277e-16
4.24246e-12
8.34032e-08
4.84164e-25
1.22318e-20
2.514e-16
4.24448e-12
8.34433e-08
4.85761e-25
1.22649e-20
2.52019e-16
4.25447e-12
8.36375e-08
4.86282e-25
1.22758e-20
2.52229e-16
4.25798e-12
8.37072e-08
4.83845e-25
1.2228e-20
2.51471e-16
4.24861e-12
8.36635e-08
4.82843e-25
1.22087e-20
2.51169e-16
4.24497e-12
8.36422e-08
3.99309e-25
1.05529e-20
2.22736e-16
3.83585e-12
7.79989e-08
3.99304e-25
1.05518e-20
2.22733e-16
3.87544e-12
1.23846e-07
4.82836e-25
1.22074e-20
2.51162e-16
4.28506e-12
1.30287e-07
4.83839e-25
1.22267e-20
2.51464e-16
4.28867e-12
1.30294e-07
4.86276e-25
1.22746e-20
2.52222e-16
4.2979e-12
1.30295e-07
4.85755e-25
1.22636e-20
2.52012e-16
4.29436e-12
1.30202e-07
4.84158e-25
1.22306e-20
2.51393e-16
4.28426e-12
1.29944e-07
4.83853e-25
1.22241e-20
2.51271e-16
4.28222e-12
1.29891e-07
4.83112e-25
1.22087e-20
2.5098e-16
4.27747e-12
1.29768e-07
4.82994e-25
1.22062e-20
2.50932e-16
4.27667e-12
1.29746e-07
4.82798e-25
1.22021e-20
2.50854e-16
4.27538e-12
1.29711e-07
4.82798e-25
1.22021e-20
2.50854e-16
4.27538e-12
1.29711e-07
4.82994e-25
1.22062e-20
2.50932e-16
4.27667e-12
1.29746e-07
4.83112e-25
1.22087e-20
2.5098e-16
4.27747e-12
1.29768e-07
4.83853e-25
1.22241e-20
2.51271e-16
4.28222e-12
1.29891e-07
4.84158e-25
1.22306e-20
2.51393e-16
4.28426e-12
1.29944e-07
4.85755e-25
1.22636e-20
2.52012e-16
4.29436e-12
1.30202e-07
4.86276e-25
1.22746e-20
2.52222e-16
4.2979e-12
1.30295e-07
4.83839e-25
1.22268e-20
2.51464e-16
4.28867e-12
1.30294e-07
4.82836e-25
1.22074e-20
2.51162e-16
4.28506e-12
1.30287e-07
3.99304e-25
1.05518e-20
2.22733e-16
3.87544e-12
1.23846e-07
3.99298e-25
1.05503e-20
2.22772e-16
3.95891e-12
2.0007e-07
4.82828e-25
1.22057e-20
2.51195e-16
4.36907e-12
2.07248e-07
4.83832e-25
1.22251e-20
2.51497e-16
4.37263e-12
2.07235e-07
4.86269e-25
1.22729e-20
2.52255e-16
4.3816e-12
2.07177e-07
4.85748e-25
1.22619e-20
2.52044e-16
4.37799e-12
2.07056e-07
4.84151e-25
1.22289e-20
2.51426e-16
4.3677e-12
2.06722e-07
4.83846e-25
1.22224e-20
2.51303e-16
4.36562e-12
2.06652e-07
4.83105e-25
1.2207e-20
2.51013e-16
4.36078e-12
2.06492e-07
4.82988e-25
1.22045e-20
2.50965e-16
4.35996e-12
2.06463e-07
4.82791e-25
1.22004e-20
2.50887e-16
4.35864e-12
2.06417e-07
4.82791e-25
1.22004e-20
2.50887e-16
4.35864e-12
2.06417e-07
4.82988e-25
1.22045e-20
2.50965e-16
4.35996e-12
2.06463e-07
4.83105e-25
1.2207e-20
2.51013e-16
4.36078e-12
2.06492e-07
4.83846e-25
1.22224e-20
2.51303e-16
4.36562e-12
2.06652e-07
4.84151e-25
1.22289e-20
2.51426e-16
4.3677e-12
2.06722e-07
4.85748e-25
1.22619e-20
2.52044e-16
4.37799e-12
2.07056e-07
4.86269e-25
1.22729e-20
2.52255e-16
4.3816e-12
2.07177e-07
4.83832e-25
1.22251e-20
2.51497e-16
4.37263e-12
2.07235e-07
4.82828e-25
1.22057e-20
2.51195e-16
4.36907e-12
2.07248e-07
3.99298e-25
1.05503e-20
2.22772e-16
3.95891e-12
2.0007e-07
3.99291e-25
1.05486e-20
2.22891e-16
4.10444e-12
3.07557e-07
4.82818e-25
1.22036e-20
2.51306e-16
4.5149e-12
3.15236e-07
4.83824e-25
1.2223e-20
2.51608e-16
4.51836e-12
3.15193e-07
4.86261e-25
1.22708e-20
2.52366e-16
4.52688e-12
3.15032e-07
4.8574e-25
1.22599e-20
2.52155e-16
4.52317e-12
3.14876e-07
4.84143e-25
1.22268e-20
2.51536e-16
4.51258e-12
3.14449e-07
4.83838e-25
1.22204e-20
2.51413e-16
4.51044e-12
3.14359e-07
4.83097e-25
1.22049e-20
2.51123e-16
4.50546e-12
3.14153e-07
4.8298e-25
1.22024e-20
2.51075e-16
4.50461e-12
3.14115e-07
4.82783e-25
1.21983e-20
2.50997e-16
4.50325e-12
3.14057e-07
4.82783e-25
1.21983e-20
2.50997e-16
4.50325e-12
3.14057e-07
4.8298e-25
1.22024e-20
2.51075e-16
4.50461e-12
3.14115e-07
4.83097e-25
1.22049e-20
2.51123e-16
4.50546e-12
3.14153e-07
4.83838e-25
1.22204e-20
2.51413e-16
4.51044e-12
3.14359e-07
4.84143e-25
1.22268e-20
2.51536e-16
4.51258e-12
3.14449e-07
4.8574e-25
1.22599e-20
2.52155e-16
4.52317e-12
3.14876e-07
4.86261e-25
1.22708e-20
2.52366e-16
4.52688e-12
3.15032e-07
4.83824e-25
1.2223e-20
2.51608e-16
4.51836e-12
3.15193e-07
4.82818e-25
1.22036e-20
2.51306e-16
4.5149e-12
3.15236e-07
3.99291e-25
1.05486e-20
2.22891e-16
4.10444e-12
3.07557e-07
3.99283e-25
1.05466e-20
2.2314e-16
4.33074e-12
4.47166e-07
4.82807e-25
1.22013e-20
2.51545e-16
4.74091e-12
4.55008e-07
4.83815e-25
1.22207e-20
2.51848e-16
4.74422e-12
4.5492e-07
4.86251e-25
1.22685e-20
2.52603e-16
4.752e-12
4.54581e-07
4.85731e-25
1.22575e-20
2.52392e-16
4.74815e-12
4.54384e-07
4.84133e-25
1.22245e-20
2.51773e-16
4.7371e-12
4.53833e-07
4.83829e-25
1.22181e-20
2.5165e-16
4.73488e-12
4.53718e-07
4.83087e-25
1.22026e-20
2.51359e-16
4.72968e-12
4.53453e-07
4.8297e-25
1.22001e-20
2.51311e-16
4.7288e-12
4.53404e-07
4.82774e-25
1.2196e-20
2.51233e-16
4.72738e-12
4.53328e-07
4.82774e-25
1.2196e-20
2.51233e-16
4.72738e-12
4.53328e-07
4.8297e-25
1.22001e-20
2.51311e-16
4.7288e-12
4.53404e-07
4.83087e-25
1.22026e-20
2.51359e-16
4.72968e-12
4.53453e-07
4.83829e-25
1.22181e-20
2.5165e-16
4.73488e-12
4.53718e-07
4.84133e-25
1.22245e-20
2.51773e-16
4.7371e-12
4.53833e-07
4.85731e-25
1.22575e-20
2.52392e-16
4.74815e-12
4.54384e-07
4.86251e-25
1.22685e-20
2.52603e-16
4.752e-12
4.54581e-07
4.83815e-25
1.22207e-20
2.51848e-16
4.74422e-12
4.5492e-07
4.82807e-25
1.22013e-20
2.51545e-16
4.74091e-12
4.55008e-07
3.99283e-25
1.05466e-20
2.2314e-16
4.33074e-12
4.47166e-07
3.99273e-25
1.05446e-20
2.23585e-16
4.65717e-12
6.19989e-07
4.82794e-25
1.21988e-20
2.51975e-16
5.06605e-12
6.27533e-07
4.83804e-25
1.22182e-20
2.52278e-16
5.06913e-12
6.27383e-07
4.8624e-25
1.22661e-20
2.5303e-16
5.0758e-12
6.26765e-07
4.8572e-25
1.22551e-20
2.52819e-16
5.07175e-12
6.26514e-07
4.84122e-25
1.22221e-20
2.52198e-16
5.06005e-12
6.25799e-07
4.83818e-25
1.22156e-20
2.52075e-16
5.05771e-12
6.25652e-07
4.83076e-25
1.22002e-20
2.51784e-16
5.05221e-12
6.2531e-07
4.82959e-25
1.21977e-20
2.51736e-16
5.05128e-12
6.25248e-07
4.82763e-25
1.21936e-20
2.51657e-16
5.04977e-12
6.25149e-07
4.82763e-25
1.21936e-20
2.51657e-16
5.04977e-12
6.25149e-07
4.82959e-25
1.21977e-20
2.51736e-16
5.05128e-12
6.25248e-07
4.83076e-25
1.22002e-20
2.51784e-16
5.05221e-12
6.2531e-07
4.83818e-25
1.22156e-20
2.52075e-16
5.05771e-12
6.25652e-07
4.84122e-25
1.22221e-20
2.52198e-16
5.06005e-12
6.25799e-07
4.8572e-25
1.22551e-20
2.52819e-16
5.07175e-12
6.26514e-07
4.8624e-25
1.22661e-20
2.5303e-16
5.0758e-12
6.26765e-07
4.83804e-25
1.22182e-20
2.52278e-16
5.06913e-12
6.27383e-07
4.82795e-25
1.21988e-20
2.51975e-16
5.06605e-12
6.27533e-07
3.99273e-25
1.05446e-20
2.23585e-16
4.65717e-12
6.19989e-07
3.99263e-25
1.05427e-20
2.243e-16
5.10355e-12
8.26693e-07
4.8278e-25
1.21964e-20
2.52669e-16
5.50957e-12
8.33317e-07
4.83792e-25
1.22158e-20
2.52972e-16
5.51234e-12
8.33085e-07
4.86228e-25
1.22637e-20
2.5372e-16
5.51742e-12
8.32057e-07
4.85707e-25
1.22527e-20
2.53508e-16
5.51308e-12
8.3174e-07
4.8411e-25
1.22197e-20
2.52885e-16
5.5005e-12
8.30809e-07
4.83806e-25
1.22132e-20
2.52762e-16
5.498e-12
8.30624e-07
4.83064e-25
1.21978e-20
2.52469e-16
5.49208e-12
8.30181e-07
4.82947e-25
1.21953e-20
2.52421e-16
5.49108e-12
8.30102e-07
4.82751e-25
1.21912e-20
2.52342e-16
5.48944e-12
8.29974e-07
4.82751e-25
1.21912e-20
2.52342e-16
5.48944e-12
8.29974e-07
4.82947e-25
1.21953e-20
2.52421e-16
5.49108e-12
8.30102e-07
4.83064e-25
1.21978e-20
2.52469e-16
5.49208e-12
8.30181e-07
4.83806e-25
1.22132e-20
2.52762e-16
5.498e-12
8.30624e-07
4.8411e-25
1.22197e-20
2.52885e-16
5.5005e-12
8.30809e-07
4.85707e-25
1.22527e-20
2.53508e-16
5.51308e-12
8.3174e-07
4.86228e-25
1.22637e-20
2.5372e-16
5.51742e-12
8.32057e-07
4.83792e-25
1.22158e-20
2.52972e-16
5.51234e-12
8.33085e-07
4.8278e-25
1.21964e-20
2.52669e-16
5.50957e-12
8.33317e-07
3.99263e-25
1.05427e-20
2.243e-16
5.10355e-12
8.26693e-07
3.99251e-25
1.05411e-20
2.25374e-16
5.68935e-12
1.06668e-06
4.82764e-25
1.21942e-20
2.53714e-16
6.09033e-12
1.07157e-06
4.83778e-25
1.22137e-20
2.54017e-16
6.09266e-12
1.07123e-06
4.86215e-25
1.22615e-20
2.54758e-16
6.09551e-12
1.06963e-06
4.85694e-25
1.22505e-20
2.54545e-16
6.09082e-12
1.06923e-06
4.84097e-25
1.22175e-20
2.53918e-16
6.07705e-12
1.06803e-06
4.83793e-25
1.22111e-20
2.53795e-16
6.07434e-12
1.0678e-06
4.83051e-25
1.21957e-20
2.53501e-16
6.06787e-12
1.06723e-06
4.82934e-25
1.21932e-20
2.53452e-16
6.06678e-12
1.06713e-06
4.82738e-25
1.21891e-20
2.53373e-16
6.06498e-12
1.06696e-06
4.82738e-25
1.21891e-20
2.53373e-16
6.06498e-12
1.06696e-06
4.82934e-25
1.21932e-20
2.53452e-16
6.06678e-12
1.06713e-06
4.83051e-25
1.21957e-20
2.53501e-16
6.06787e-12
1.06723e-06
4.83793e-25
1.22111e-20
2.53795e-16
6.07434e-12
1.0678e-06
4.84097e-25
1.22175e-20
2.53918e-16
6.07705e-12
1.06803e-06
4.85694e-25
1.22505e-20
2.54545e-16
6.09082e-12
1.06923e-06
4.86215e-25
1.22615e-20
2.54758e-16
6.09551e-12
1.06963e-06
4.83778e-25
1.22137e-20
2.54017e-16
6.09266e-12
1.07123e-06
4.82764e-25
1.21942e-20
2.53714e-16
6.09033e-12
1.07157e-06
3.99251e-25
1.05411e-20
2.25374e-16
5.68935e-12
1.06668e-06
3.9924e-25
1.05401e-20
2.26806e-16
6.27346e-12
1.06408e-06
4.82747e-25
1.21926e-20
2.55109e-16
6.66936e-12
1.069e-06
4.83764e-25
1.22121e-20
2.55411e-16
6.67127e-12
1.06866e-06
4.86201e-25
1.22599e-20
2.56142e-16
6.67192e-12
1.06709e-06
4.8568e-25
1.22489e-20
2.55928e-16
6.66686e-12
1.0667e-06
4.84083e-25
1.22159e-20
2.55297e-16
6.65192e-12
1.06551e-06
4.83778e-25
1.22095e-20
2.55173e-16
6.64901e-12
1.06528e-06
4.83037e-25
1.21941e-20
2.54877e-16
6.64199e-12
1.06471e-06
4.8292e-25
1.21916e-20
2.54828e-16
6.64081e-12
1.06461e-06
4.82723e-25
1.21875e-20
2.54748e-16
6.63886e-12
1.06445e-06
4.82723e-25
1.21875e-20
2.54748e-16
6.63886e-12
1.06445e-06
4.8292e-25
1.21916e-20
2.54828e-16
6.64081e-12
1.06461e-06
4.83037e-25
1.21941e-20
2.54877e-16
6.64199e-12
1.06471e-06
4.83778e-25
1.22095e-20
2.55173e-16
6.64901e-12
1.06528e-06
4.84083e-25
1.22159e-20
2.55297e-16
6.65192e-12
1.06551e-06
4.8568e-25
1.22489e-20
2.55928e-16
6.66686e-12
1.0667e-06
4.862e-25
1.22599e-20
2.56142e-16
6.67192e-12
1.06709e-06
4.83764e-25
1.22121e-20
2.55411e-16
6.67127e-12
1.06866e-06
4.82747e-25
1.21926e-20
2.55109e-16
6.66936e-12
1.069e-06
3.9924e-25
1.05401e-20
2.26806e-16
6.27346e-12
1.06408e-06
3.99228e-25
1.05399e-20
2.28595e-16
6.85587e-12
1.06156e-06
4.8273e-25
1.21916e-20
2.56853e-16
7.24667e-12
1.06651e-06
4.83749e-25
1.22112e-20
2.57153e-16
7.24817e-12
1.06618e-06
4.86186e-25
1.2259e-20
2.57873e-16
7.24663e-12
1.06463e-06
4.85665e-25
1.2248e-20
2.57657e-16
7.24122e-12
1.06424e-06
4.84068e-25
1.2215e-20
2.57021e-16
7.22511e-12
1.06306e-06
4.83764e-25
1.22086e-20
2.56895e-16
7.22199e-12
1.06283e-06
4.83022e-25
1.21932e-20
2.56597e-16
7.21443e-12
1.06227e-06
4.82905e-25
1.21907e-20
2.56548e-16
7.21316e-12
1.06218e-06
4.82709e-25
1.21866e-20
2.56467e-16
7.21105e-12
1.06202e-06
4.82709e-25
1.21866e-20
2.56467e-16
7.21105e-12
1.06202e-06
4.82905e-25
1.21907e-20
2.56548e-16
7.21316e-12
1.06218e-06
4.83022e-25
1.21932e-20
2.56597e-16
7.21443e-12
1.06227e-06
4.83764e-25
1.22086e-20
2.56895e-16
7.22199e-12
1.06283e-06
4.84068e-25
1.2215e-20
2.57021e-16
7.22511e-12
1.06306e-06
4.85665e-25
1.2248e-20
2.57657e-16
7.24122e-12
1.06424e-06
4.86186e-25
1.2259e-20
2.57873e-16
7.24663e-12
1.06463e-06
4.83749e-25
1.22112e-20
2.57153e-16
7.24817e-12
1.06618e-06
4.8273e-25
1.21916e-20
2.56853e-16
7.24667e-12
1.06651e-06
3.99228e-25
1.05399e-20
2.28595e-16
6.85587e-12
1.06156e-06
3.99217e-25
1.05408e-20
2.30739e-16
7.4365e-12
1.05912e-06
4.82712e-25
1.21917e-20
2.58945e-16
7.82218e-12
1.0641e-06
4.83735e-25
1.22113e-20
2.59243e-16
7.82326e-12
1.06377e-06
4.86172e-25
1.2259e-20
2.59949e-16
7.81956e-12
1.06225e-06
4.85651e-25
1.2248e-20
2.59731e-16
7.8138e-12
1.06186e-06
4.84054e-25
1.2215e-20
2.59088e-16
7.79654e-12
1.06069e-06
4.8375e-25
1.22086e-20
2.58962e-16
7.79321e-12
1.06046e-06
4.83008e-25
1.21932e-20
2.5866e-16
7.78512e-12
1.05991e-06
4.82891e-25
1.21907e-20
2.5861e-16
7.78376e-12
1.05981e-06
4.82695e-25
1.21866e-20
2.58529e-16
7.78149e-12
1.05965e-06
4.82695e-25
1.21866e-20
2.58529e-16
7.78149e-12
1.05965e-06
4.82891e-25
1.21907e-20
2.5861e-16
7.78376e-12
1.05981e-06
4.83008e-25
1.21932e-20
2.5866e-16
7.78512e-12
1.05991e-06
4.8375e-25
1.22086e-20
2.58962e-16
7.79321e-12
1.06046e-06
4.84054e-25
1.2215e-20
2.59088e-16
7.79654e-12
1.06069e-06
4.85651e-25
1.2248e-20
2.59731e-16
7.8138e-12
1.06186e-06
4.86172e-25
1.2259e-20
2.59949e-16
7.81956e-12
1.06225e-06
4.83735e-25
1.22113e-20
2.59243e-16
7.82326e-12
1.06377e-06
4.82712e-25
1.21917e-20
2.58945e-16
7.82218e-12
1.0641e-06
3.99217e-25
1.05408e-20
2.30739e-16
7.4365e-12
1.05912e-06
3.99208e-25
1.0543e-20
2.33239e-16
8.01527e-12
1.05674e-06
4.82696e-25
1.21929e-20
2.61383e-16
8.39581e-12
1.06175e-06
4.83722e-25
1.22125e-20
2.61679e-16
8.39648e-12
1.06143e-06
4.86159e-25
1.22602e-20
2.62369e-16
8.39064e-12
1.05992e-06
4.85638e-25
1.22492e-20
2.62149e-16
8.38453e-12
1.05954e-06
4.84041e-25
1.22162e-20
2.61498e-16
8.36612e-12
1.05838e-06
4.83737e-25
1.22098e-20
2.6137e-16
8.3626e-12
1.05816e-06
4.82995e-25
1.21944e-20
2.61065e-16
8.35396e-12
1.05761e-06
4.82878e-25
1.21919e-20
2.61015e-16
8.35252e-12
1.05751e-06
4.82682e-25
1.21878e-20
2.60932e-16
8.3501e-12
1.05735e-06
4.82682e-25
1.21878e-20
2.60932e-16
8.3501e-12
1.05735e-06
4.82878e-25
1.21919e-20
2.61015e-16
8.35252e-12
1.05751e-06
4.82995e-25
1.21944e-20
2.61065e-16
8.35396e-12
1.05761e-06
4.83737e-25
1.22098e-20
2.6137e-16
8.3626e-12
1.05816e-06
4.84041e-25
1.22162e-20
2.61498e-16
8.36612e-12
1.05838e-06
4.85638e-25
1.22492e-20
2.62149e-16
8.38453e-12
1.05954e-06
4.86158e-25
1.22602e-20
2.62369e-16
8.39064e-12
1.05992e-06
4.83722e-25
1.22125e-20
2.61679e-16
8.39648e-12
1.06143e-06
4.82696e-25
1.21929e-20
2.61383e-16
8.39581e-12
1.06175e-06
3.99208e-25
1.0543e-20
2.33239e-16
8.01527e-12
1.05674e-06
3.99202e-25
1.05466e-20
2.36092e-16
8.59209e-12
1.05443e-06
4.82681e-25
1.21955e-20
2.64167e-16
8.96746e-12
1.05946e-06
4.83711e-25
1.22152e-20
2.6446e-16
8.96773e-12
1.05915e-06
4.86147e-25
1.22628e-20
2.65132e-16
8.95977e-12
1.05766e-06
4.85627e-25
1.22518e-20
2.64909e-16
8.95332e-12
1.05728e-06
4.8403e-25
1.22188e-20
2.64249e-16
8.93378e-12
1.05613e-06
4.83726e-25
1.22124e-20
2.6412e-16
8.93005e-12
1.05591e-06
4.82984e-25
1.21969e-20
2.63811e-16
8.92089e-12
1.05537e-06
4.82867e-25
1.21945e-20
2.6376e-16
8.91936e-12
1.05527e-06
4.82671e-25
1.21903e-20
2.63676e-16
8.91679e-12
1.05512e-06
4.82671e-25
1.21903e-20
2.63676e-16
8.91679e-12
1.05512e-06
4.82867e-25
1.21945e-20
2.6376e-16
8.91936e-12
1.05527e-06
4.82984e-25
1.21969e-20
2.63811e-16
8.92089e-12
1.05537e-06
4.83726e-25
1.22124e-20
2.6412e-16
8.93005e-12
1.05591e-06
4.8403e-25
1.22188e-20
2.64249e-16
8.93378e-12
1.05613e-06
4.85627e-25
1.22518e-20
2.64909e-16
8.95332e-12
1.05728e-06
4.86147e-25
1.22628e-20
2.65132e-16
8.95977e-12
1.05766e-06
4.83711e-25
1.22152e-20
2.6446e-16
8.96773e-12
1.05915e-06
4.82681e-25
1.21955e-20
2.64167e-16
8.96746e-12
1.05946e-06
3.99202e-25
1.05466e-20
2.36092e-16
8.59209e-12
1.05443e-06
3.99199e-25
1.0552e-20
2.39297e-16
9.16687e-12
1.05218e-06
4.8267e-25
1.21997e-20
2.67294e-16
9.53705e-12
1.05724e-06
4.83704e-25
1.22195e-20
2.67585e-16
9.53693e-12
1.05692e-06
4.86139e-25
1.2267e-20
2.68236e-16
9.52687e-12
1.05546e-06
4.85619e-25
1.2256e-20
2.6801e-16
9.52008e-12
1.05508e-06
4.84022e-25
1.2223e-20
2.67341e-16
9.49942e-12
1.05394e-06
4.83718e-25
1.22166e-20
2.6721e-16
9.4955e-12
1.05372e-06
4.82976e-25
1.22011e-20
2.66895e-16
9.48582e-12
1.05319e-06
4.82859e-25
1.21986e-20
2.66844e-16
9.4842e-12
1.05309e-06
4.82663e-25
1.21945e-20
2.66759e-16
9.48147e-12
1.05294e-06
4.82663e-25
1.21945e-20
2.66759e-16
9.48147e-12
1.05294e-06
4.82859e-25
1.21986e-20
2.66844e-16
9.4842e-12
1.05309e-06
4.82976e-25
1.22011e-20
2.66895e-16
9.48582e-12
1.05319e-06
4.83718e-25
1.22166e-20
2.6721e-16
9.4955e-12
1.05372e-06
4.84022e-25
1.2223e-20
2.67341e-16
9.49942e-12
1.05394e-06
4.85619e-25
1.2256e-20
2.6801e-16
9.52008e-12
1.05508e-06
4.86139e-25
1.2267e-20
2.68236e-16
9.52687e-12
1.05546e-06
4.83704e-25
1.22195e-20
2.67585e-16
9.53693e-12
1.05692e-06
4.8267e-25
1.21997e-20
2.67294e-16
9.53705e-12
1.05724e-06
3.99199e-25
1.0552e-20
2.39297e-16
9.16687e-12
1.05218e-06
3.99202e-25
1.05593e-20
2.42852e-16
9.73953e-12
1.04999e-06
4.82662e-25
1.22058e-20
2.70765e-16
1.01045e-11
1.05506e-06
4.837e-25
1.22256e-20
2.71052e-16
1.0104e-11
1.05475e-06
4.86136e-25
1.2273e-20
2.7168e-16
1.00919e-11
1.05331e-06
4.85615e-25
1.2262e-20
2.71451e-16
1.00847e-11
1.05293e-06
4.84018e-25
1.2229e-20
2.70771e-16
1.0063e-11
1.05181e-06
4.83714e-25
1.22225e-20
2.70638e-16
1.00588e-11
1.05159e-06
4.82973e-25
1.22071e-20
2.70318e-16
1.00486e-11
1.05105e-06
4.82856e-25
1.22046e-20
2.70266e-16
1.00469e-11
1.05096e-06
4.82659e-25
1.22005e-20
2.70179e-16
1.00441e-11
1.05081e-06
4.82659e-25
1.22005e-20
2.70179e-16
1.00441e-11
1.05081e-06
4.82856e-25
1.22046e-20
2.70266e-16
1.00469e-11
1.05096e-06
4.82973e-25
1.22071e-20
2.70318e-16
1.00486e-11
1.05105e-06
4.83714e-25
1.22225e-20
2.70638e-16
1.00588e-11
1.05159e-06
4.84018e-25
1.2229e-20
2.70771e-16
1.0063e-11
1.05181e-06
4.85615e-25
1.2262e-20
2.71451e-16
1.00847e-11
1.05293e-06
4.86136e-25
1.2273e-20
2.7168e-16
1.00919e-11
1.05331e-06
4.837e-25
1.22256e-20
2.71052e-16
1.0104e-11
1.05475e-06
4.82662e-25
1.22058e-20
2.70765e-16
1.01045e-11
1.05506e-06
3.99202e-25
1.05593e-20
2.42852e-16
9.73953e-12
1.04999e-06
3.99211e-25
1.05689e-20
2.46757e-16
1.031e-11
1.04784e-06
4.8266e-25
1.22139e-20
2.74576e-16
1.06697e-11
1.05294e-06
4.83703e-25
1.22338e-20
2.7486e-16
1.06688e-11
1.05263e-06
4.86137e-25
1.2281e-20
2.75463e-16
1.06546e-11
1.0512e-06
4.85617e-25
1.22701e-20
2.75231e-16
1.06472e-11
1.05083e-06
4.8402e-25
1.2237e-20
2.74538e-16
1.06243e-11
1.04972e-06
4.83716e-25
1.22305e-20
2.74403e-16
1.062e-11
1.0495e-06
4.82975e-25
1.22151e-20
2.74078e-16
1.06093e-11
1.04897e-06
4.82858e-25
1.22126e-20
2.74024e-16
1.06075e-11
1.04888e-06
4.82661e-25
1.22084e-20
2.73936e-16
1.06045e-11
1.04872e-06
4.82661e-25
1.22084e-20
2.73936e-16
1.06045e-11
1.04872e-06
4.82858e-25
1.22126e-20
2.74024e-16
1.06075e-11
1.04888e-06
4.82975e-25
1.22151e-20
2.74078e-16
1.06093e-11
1.04897e-06
4.83716e-25
1.22305e-20
2.74403e-16
1.062e-11
1.0495e-06
4.8402e-25
1.2237e-20
2.74538e-16
1.06243e-11
1.04972e-06
4.85617e-25
1.22701e-20
2.75231e-16
1.06472e-11
1.05083e-06
4.86137e-25
1.2281e-20
2.75463e-16
1.06546e-11
1.0512e-06
4.83702e-25
1.22338e-20
2.7486e-16
1.06688e-11
1.05263e-06
4.8266e-25
1.22139e-20
2.74576e-16
1.06697e-11
1.05294e-06
3.99211e-25
1.05689e-20
2.46757e-16
1.031e-11
1.04784e-06
3.99229e-25
1.05808e-20
2.51009e-16
1.08781e-11
1.04574e-06
4.82665e-25
1.22243e-20
2.78726e-16
1.12325e-11
1.05085e-06
4.83712e-25
1.22443e-20
2.79007e-16
1.12313e-11
1.05055e-06
4.86147e-25
1.22914e-20
2.79583e-16
1.12151e-11
1.04914e-06
4.85626e-25
1.22804e-20
2.79346e-16
1.12073e-11
1.04877e-06
4.84029e-25
1.22472e-20
2.7864e-16
1.11834e-11
1.04766e-06
4.83725e-25
1.22408e-20
2.78503e-16
1.11789e-11
1.04745e-06
4.82984e-25
1.22253e-20
2.78172e-16
1.11676e-11
1.04692e-06
4.82866e-25
1.22228e-20
2.78117e-16
1.11658e-11
1.04683e-06
4.8267e-25
1.22187e-20
2.78027e-16
1.11626e-11
1.04668e-06
4.8267e-25
1.22187e-20
2.78027e-16
1.11626e-11
1.04668e-06
4.82866e-25
1.22228e-20
2.78117e-16
1.11658e-11
1.04683e-06
4.82984e-25
1.22253e-20
2.78172e-16
1.11676e-11
1.04692e-06
4.83725e-25
1.22408e-20
2.78503e-16
1.11789e-11
1.04745e-06
4.84029e-25
1.22472e-20
2.7864e-16
1.11834e-11
1.04766e-06
4.85626e-25
1.22804e-20
2.79346e-16
1.12073e-11
1.04877e-06
4.86146e-25
1.22914e-20
2.79583e-16
1.12151e-11
1.04914e-06
4.83712e-25
1.22443e-20
2.79007e-16
1.12313e-11
1.05055e-06
4.82665e-25
1.22243e-20
2.78726e-16
1.12325e-11
1.05085e-06
3.99229e-25
1.05808e-20
2.51009e-16
1.08781e-11
1.04574e-06
3.99256e-25
1.05953e-20
2.55607e-16
1.14437e-11
1.04364e-06
4.82679e-25
1.22373e-20
2.83214e-16
1.17929e-11
1.04877e-06
4.83731e-25
1.22573e-20
2.83491e-16
1.17913e-11
1.04847e-06
4.86164e-25
1.23041e-20
2.84037e-16
1.17731e-11
1.04708e-06
4.85644e-25
1.22931e-20
2.83797e-16
1.1765e-11
1.04671e-06
4.84047e-25
1.22599e-20
2.83076e-16
1.174e-11
1.04561e-06
4.83743e-25
1.22535e-20
2.82936e-16
1.17353e-11
1.0454e-06
4.83001e-25
1.2238e-20
2.82599e-16
1.17236e-11
1.04488e-06
4.82884e-25
1.22355e-20
2.82543e-16
1.17217e-11
1.04479e-06
4.82688e-25
1.22313e-20
2.82451e-16
1.17183e-11
1.04464e-06
4.82688e-25
1.22313e-20
2.82451e-16
1.17183e-11
1.04464e-06
4.82884e-25
1.22355e-20
2.82543e-16
1.17217e-11
1.04479e-06
4.83001e-25
1.2238e-20
2.82599e-16
1.17236e-11
1.04488e-06
4.83743e-25
1.22535e-20
2.82936e-16
1.17353e-11
1.0454e-06
4.84047e-25
1.22599e-20
2.83076e-16
1.174e-11
1.04561e-06
4.85644e-25
1.22931e-20
2.83797e-16
1.1765e-11
1.04671e-06
4.86164e-25
1.23041e-20
2.84037e-16
1.17731e-11
1.04708e-06
4.83731e-25
1.22572e-20
2.83491e-16
1.17913e-11
1.04847e-06
4.82679e-25
1.22373e-20
2.83214e-16
1.17929e-11
1.04877e-06
3.99256e-25
1.05953e-20
2.55607e-16
1.14437e-11
1.04364e-06
0.00140533
0.000370091
1.73227e-05
1.74874e-07
2.88006e-10
6.22697e-13
5.6524e-13
5.68639e-13
5.6938e-13
5.69518e-13
5.69569e-13
5.69882e-13
5.71432e-13
5.73268e-13
5.88189e-13
6.0072e-13
7.31099e-13
8.00752e-13
2.55742e-12
2.98547e-12
0.00151051
0.000399928
1.912e-05
1.99185e-07
3.44328e-10
6.46434e-13
5.65128e-13
5.68608e-13
5.69366e-13
5.69507e-13
5.69548e-13
5.69803e-13
5.71387e-13
5.73256e-13
5.8844e-13
6.01124e-13
7.33261e-13
8.03383e-13
2.58077e-12
3.01402e-12
0.00151081
0.000399874
1.91026e-05
1.98909e-07
3.43645e-10
6.46163e-13
5.65126e-13
5.68607e-13
5.69367e-13
5.69508e-13
5.69549e-13
5.69807e-13
5.71393e-13
5.73263e-13
5.88452e-13
6.01139e-13
7.33303e-13
8.03428e-13
2.581e-12
3.01425e-12
0.00151187
0.000399238
1.89734e-05
1.96835e-07
3.38516e-10
6.4414e-13
5.65122e-13
5.68608e-13
5.69368e-13
5.6951e-13
5.69553e-13
5.6983e-13
5.71419e-13
5.73292e-13
5.885e-13
6.01196e-13
7.33446e-13
8.0358e-13
2.58175e-12
3.01491e-12
0.00151053
0.000398795
1.89402e-05
1.96375e-07
3.37394e-10
6.43659e-13
5.65121e-13
5.68608e-13
5.69368e-13
5.6951e-13
5.69553e-13
5.69831e-13
5.7142e-13
5.73293e-13
5.88501e-13
6.01197e-13
7.33451e-13
8.03584e-13
2.58176e-12
3.01492e-12
0.00150701
0.000397433
1.88296e-05
1.94826e-07
3.33665e-10
6.42082e-13
5.65122e-13
5.68608e-13
5.69368e-13
5.6951e-13
5.69553e-13
5.69832e-13
5.71421e-13
5.73294e-13
5.88504e-13
6.01201e-13
7.33458e-13
8.03591e-13
2.58179e-12
3.01494e-12
0.00150625
0.000397183
1.88114e-05
1.94579e-07
3.33063e-10
6.41822e-13
5.65123e-13
5.68608e-13
5.69369e-13
5.6951e-13
5.69553e-13
5.69832e-13
5.71421e-13
5.73295e-13
5.88504e-13
6.01201e-13
7.33459e-13
8.03592e-13
2.58179e-12
3.01494e-12
0.00150458
0.000396552
1.87615e-05
1.93888e-07
3.31405e-10
6.41116e-13
5.65123e-13
5.68608e-13
5.69369e-13
5.6951e-13
5.69553e-13
5.69832e-13
5.71422e-13
5.73295e-13
5.88505e-13
6.01201e-13
7.33459e-13
8.03592e-13
2.58179e-12
3.01494e-12
0.00150427
0.000396451
1.87541e-05
1.93787e-07
3.31161e-10
6.41011e-13
5.65123e-13
5.68608e-13
5.69369e-13
5.6951e-13
5.69553e-13
5.69832e-13
5.71422e-13
5.73295e-13
5.88505e-13
6.01201e-13
7.33459e-13
8.03592e-13
2.58179e-12
3.01494e-12
0.0015038
0.000396274
1.87401e-05
1.93595e-07
3.30699e-10
6.40814e-13
5.65123e-13
5.68608e-13
5.69368e-13
5.6951e-13
5.69553e-13
5.69832e-13
5.71421e-13
5.73295e-13
5.88504e-13
6.01201e-13
7.33459e-13
8.03592e-13
2.58179e-12
3.01494e-12
0.0015038
0.000396274
1.87401e-05
1.93595e-07
3.30699e-10
6.40814e-13
5.65123e-13
5.68608e-13
5.69368e-13
5.6951e-13
5.69553e-13
5.69832e-13
5.71421e-13
5.73295e-13
5.88504e-13
6.01201e-13
7.33459e-13
8.03592e-13
2.58179e-12
3.01494e-12
0.00150427
0.000396451
1.87541e-05
1.93787e-07
3.31161e-10
6.41011e-13
5.65123e-13
5.68608e-13
5.69369e-13
5.6951e-13
5.69553e-13
5.69832e-13
5.71422e-13
5.73295e-13
5.88505e-13
6.01201e-13
7.33459e-13
8.03592e-13
2.58179e-12
3.01494e-12
0.00150458
0.000396552
1.87615e-05
1.93888e-07
3.31405e-10
6.41116e-13
5.65123e-13
5.68608e-13
5.69369e-13
5.6951e-13
5.69553e-13
5.69832e-13
5.71422e-13
5.73295e-13
5.88505e-13
6.01201e-13
7.33459e-13
8.03592e-13
2.58179e-12
3.01494e-12
0.00150625
0.000397183
1.88114e-05
1.94579e-07
3.33063e-10
6.41822e-13
5.65123e-13
5.68608e-13
5.69369e-13
5.6951e-13
5.69553e-13
5.69832e-13
5.71421e-13
5.73295e-13
5.88504e-13
6.01201e-13
7.33459e-13
8.03592e-13
2.58179e-12
3.01494e-12
0.00150701
0.000397433
1.88296e-05
1.94826e-07
3.33665e-10
6.42082e-13
5.65122e-13
5.68608e-13
5.69368e-13
5.6951e-13
5.69553e-13
5.69832e-13
5.71421e-13
5.73294e-13
5.88504e-13
6.01201e-13
7.33458e-13
8.03591e-13
2.58179e-12
3.01494e-12
0.00151053
0.000398795
1.89402e-05
1.96375e-07
3.37394e-10
6.43659e-13
5.65121e-13
5.68608e-13
5.69368e-13
5.6951e-13
5.69553e-13
5.69831e-13
5.7142e-13
5.73293e-13
5.88501e-13
6.01197e-13
7.33451e-13
8.03584e-13
2.58176e-12
3.01492e-12
0.00151187
0.000399238
1.89734e-05
1.96835e-07
3.38516e-10
6.4414e-13
5.65122e-13
5.68608e-13
5.69368e-13
5.6951e-13
5.69553e-13
5.6983e-13
5.71419e-13
5.73292e-13
5.885e-13
6.01196e-13
7.33446e-13
8.0358e-13
2.58175e-12
3.01491e-12
0.00151081
0.000399874
1.91026e-05
1.98909e-07
3.43645e-10
6.46163e-13
5.65126e-13
5.68607e-13
5.69367e-13
5.69508e-13
5.69549e-13
5.69807e-13
5.71393e-13
5.73263e-13
5.88452e-13
6.01139e-13
7.33303e-13
8.03428e-13
2.581e-12
3.01425e-12
0.00151051
0.000399928
1.912e-05
1.99185e-07
3.44328e-10
6.46434e-13
5.65128e-13
5.68608e-13
5.69366e-13
5.69507e-13
5.69548e-13
5.69803e-13
5.71387e-13
5.73256e-13
5.8844e-13
6.01124e-13
7.33261e-13
8.03383e-13
2.58077e-12
3.01402e-12
0.00140533
0.000370091
1.73227e-05
1.74874e-07
2.88006e-10
6.22697e-13
5.6524e-13
5.68639e-13
5.6938e-13
5.69518e-13
5.69569e-13
5.69882e-13
5.71432e-13
5.73268e-13
5.88189e-13
6.0072e-13
7.31099e-13
8.00752e-13
2.55742e-12
2.98547e-12
0.0174876
0.00606281
0.000411761
5.37854e-06
1.13459e-08
2.44177e-11
2.09147e-11
2.1055e-11
2.10857e-11
2.10915e-11
2.10936e-11
2.11055e-11
2.11638e-11
2.12325e-11
2.17893e-11
2.22537e-11
2.70842e-11
2.9639e-11
9.39395e-11
1.09275e-10
0.0184419
0.00644452
0.000447054
6.00918e-06
1.31829e-08
2.53912e-11
2.09101e-11
2.10537e-11
2.10852e-11
2.10912e-11
2.10929e-11
2.11025e-11
2.11622e-11
2.12321e-11
2.17988e-11
2.22689e-11
2.71651e-11
2.9737e-11
9.47966e-11
1.10319e-10
0.0184422
0.00644284
0.000446569
5.99962e-06
1.31542e-08
2.53773e-11
2.091e-11
2.10537e-11
2.10852e-11
2.10912e-11
2.10929e-11
2.11027e-11
2.11624e-11
2.12323e-11
2.17993e-11
2.22695e-11
2.71666e-11
2.97386e-11
9.48051e-11
1.10328e-10
0.0184486
0.00643209
0.000443415
5.93429e-06
1.29539e-08
2.52777e-11
2.09098e-11
2.10537e-11
2.10853e-11