/*--------------------------------*- C++ -*----------------------------------*\
  =========                 |
  \\      /  F ield         | OpenFOAM: The Open Source CFD Toolbox
   \\    /   O peration     | Website:  https://openfoam.org
    \\  /    A nd           | Version:  8
     \\/     M anipulation  |
\*---------------------------------------------------------------------------*/
FoamFile
{
    version     2.0;
    format      ascii;
    class       volScalarField;
    location    "3.6";
    object      H2;
}
// * * * * * * * * * * * * * * * * * * * * * * * * * * * * * * * * * * * * * //

dimensions      [0 1 -1 0 0 0 0];

internalField   nonuniform List<scalar> 
180000
(
-1.26416e-26
2.17529e-22
1.53025e-17
4.79785e-13
1.08298e-08
-8.33888e-27
3.562e-22
1.88967e-17
5.55688e-13
1.21496e-08
-8.30791e-27
3.57668e-22
1.89375e-17
5.565e-13
1.21613e-08
-8.23283e-27
3.617e-22
1.90529e-17
5.58835e-13
1.21951e-08
-8.26198e-27
3.60923e-22
1.90329e-17
5.58365e-13
1.21852e-08
-8.35388e-27
3.58462e-22
1.89704e-17
5.5693e-13
1.21557e-08
-8.36984e-27
3.58009e-22
1.89585e-17
5.56653e-13
1.215e-08
-8.40985e-27
3.56884e-22
1.89293e-17
5.55979e-13
1.21362e-08
-8.41585e-27
3.56712e-22
1.89248e-17
5.55873e-13
1.21339e-08
-8.42614e-27
3.5642e-22
1.89171e-17
5.55694e-13
1.21302e-08
-8.42614e-27
3.5642e-22
1.89171e-17
5.55694e-13
1.21302e-08
-8.41585e-27
3.56712e-22
1.89248e-17
5.55873e-13
1.21339e-08
-8.40985e-27
3.56884e-22
1.89293e-17
5.55979e-13
1.21362e-08
-8.36984e-27
3.58009e-22
1.89585e-17
5.56653e-13
1.215e-08
-8.35388e-27
3.58462e-22
1.89704e-17
5.5693e-13
1.21557e-08
-8.26198e-27
3.60923e-22
1.90329e-17
5.58365e-13
1.21852e-08
-8.23283e-27
3.617e-22
1.90529e-17
5.58835e-13
1.21951e-08
-8.3079e-27
3.57668e-22
1.89375e-17
5.565e-13
1.21613e-08
-8.33887e-27
3.562e-22
1.88967e-17
5.55688e-13
1.21496e-08
-1.26416e-26
2.17529e-22
1.53025e-17
4.79785e-13
1.08298e-08
-1.26419e-26
2.17514e-22
1.53019e-17
4.80861e-13
1.27421e-08
-8.33932e-27
3.56178e-22
1.88959e-17
5.56816e-13
1.4177e-08
-8.30834e-27
3.57647e-22
1.89367e-17
5.57627e-13
1.41882e-08
-8.23327e-27
3.61678e-22
1.90521e-17
5.59957e-13
1.42181e-08
-8.26242e-27
3.60901e-22
1.90321e-17
5.59486e-13
1.42061e-08
-8.35431e-27
3.5844e-22
1.89696e-17
5.58045e-13
1.41701e-08
-8.37028e-27
3.57987e-22
1.89577e-17
5.57768e-13
1.41632e-08
-8.41028e-27
3.56863e-22
1.89285e-17
5.57092e-13
1.41463e-08
-8.41628e-27
3.56691e-22
1.8924e-17
5.56985e-13
1.41436e-08
-8.42657e-27
3.56398e-22
1.89163e-17
5.56806e-13
1.4139e-08
-8.42657e-27
3.56398e-22
1.89163e-17
5.56806e-13
1.4139e-08
-8.41628e-27
3.56691e-22
1.8924e-17
5.56985e-13
1.41436e-08
-8.41028e-27
3.56863e-22
1.89285e-17
5.57092e-13
1.41463e-08
-8.37028e-27
3.57987e-22
1.89577e-17
5.57768e-13
1.41632e-08
-8.35431e-27
3.5844e-22
1.89696e-17
5.58045e-13
1.41701e-08
-8.26242e-27
3.60901e-22
1.90321e-17
5.59486e-13
1.42061e-08
-8.23327e-27
3.61678e-22
1.90521e-17
5.59957e-13
1.42181e-08
-8.30834e-27
3.57647e-22
1.89367e-17
5.57627e-13
1.41882e-08
-8.33932e-27
3.56178e-22
1.88959e-17
5.56816e-13
1.4177e-08
-1.26419e-26
2.17514e-22
1.53019e-17
4.80861e-13
1.27421e-08
-1.26422e-26
2.17497e-22
1.53057e-17
4.88866e-13
2.47988e-08
-8.3397e-27
3.56151e-22
1.88993e-17
5.65103e-13
2.67373e-08
-8.3087e-27
3.57621e-22
1.89402e-17
5.65909e-13
2.67448e-08
-8.23363e-27
3.61652e-22
1.90555e-17
5.68208e-13
2.67553e-08
-8.26278e-27
3.60875e-22
1.90355e-17
5.67727e-13
2.67335e-08
-8.35467e-27
3.58414e-22
1.8973e-17
5.66258e-13
2.66668e-08
-8.37064e-27
3.57961e-22
1.89611e-17
5.65975e-13
2.66544e-08
-8.41064e-27
3.56837e-22
1.89319e-17
5.65286e-13
2.66232e-08
-8.41664e-27
3.56665e-22
1.89274e-17
5.65177e-13
2.66182e-08
-8.42693e-27
3.56372e-22
1.89197e-17
5.64994e-13
2.66096e-08
-8.42693e-27
3.56372e-22
1.89197e-17
5.64994e-13
2.66096e-08
-8.41664e-27
3.56665e-22
1.89274e-17
5.65177e-13
2.66182e-08
-8.41064e-27
3.56837e-22
1.89319e-17
5.65286e-13
2.66232e-08
-8.37064e-27
3.57961e-22
1.89611e-17
5.65975e-13
2.66544e-08
-8.35467e-27
3.58414e-22
1.8973e-17
5.66258e-13
2.66668e-08
-8.26278e-27
3.60875e-22
1.90355e-17
5.67727e-13
2.67335e-08
-8.23363e-27
3.61652e-22
1.90555e-17
5.68208e-13
2.67553e-08
-8.3087e-27
3.57621e-22
1.89402e-17
5.65909e-13
2.67448e-08
-8.3397e-27
3.56152e-22
1.88993e-17
5.65103e-13
2.67373e-08
-1.26422e-26
2.17497e-22
1.53057e-17
4.88866e-13
2.47988e-08
-1.26425e-26
2.17484e-22
1.53265e-17
5.17252e-13
6.01798e-08
-8.34011e-27
3.56123e-22
1.892e-17
5.94149e-13
6.30661e-08
-8.30907e-27
3.57593e-22
1.89608e-17
5.94937e-13
6.30641e-08
-8.234e-27
3.61624e-22
1.9076e-17
5.97138e-13
6.30347e-08
-8.26315e-27
3.60847e-22
1.9056e-17
5.96632e-13
6.29928e-08
-8.35504e-27
3.58386e-22
1.89934e-17
5.95079e-13
6.28642e-08
-8.37101e-27
3.57934e-22
1.89815e-17
5.94782e-13
6.28403e-08
-8.41101e-27
3.56809e-22
1.89522e-17
5.94054e-13
6.27798e-08
-8.41701e-27
3.56637e-22
1.89477e-17
5.93939e-13
6.27701e-08
-8.4273e-27
3.56345e-22
1.894e-17
5.93744e-13
6.27532e-08
-8.4273e-27
3.56345e-22
1.894e-17
5.93744e-13
6.27532e-08
-8.41701e-27
3.56637e-22
1.89477e-17
5.93939e-13
6.27701e-08
-8.41101e-27
3.56809e-22
1.89522e-17
5.94054e-13
6.27798e-08
-8.37101e-27
3.57934e-22
1.89815e-17
5.94782e-13
6.28403e-08
-8.35504e-27
3.58386e-22
1.89934e-17
5.95079e-13
6.28642e-08
-8.26315e-27
3.60847e-22
1.9056e-17
5.96632e-13
6.29928e-08
-8.234e-27
3.61624e-22
1.9076e-17
5.97138e-13
6.30347e-08
-8.30907e-27
3.57593e-22
1.89608e-17
5.94937e-13
6.30641e-08
-8.34011e-27
3.56123e-22
1.892e-17
5.94149e-13
6.30661e-08
-1.26425e-26
2.17484e-22
1.53265e-17
5.17252e-13
6.01798e-08
-1.26427e-26
2.17502e-22
1.53889e-17
5.84767e-13
1.27994e-07
-8.34053e-27
3.56119e-22
1.89822e-17
6.62616e-13
1.31937e-07
-8.30943e-27
3.57591e-22
1.9023e-17
6.63362e-13
1.31918e-07
-8.23437e-27
3.6162e-22
1.91378e-17
6.65346e-13
1.31827e-07
-8.26352e-27
3.60843e-22
1.91177e-17
6.64788e-13
1.31757e-07
-8.35541e-27
3.58383e-22
1.90548e-17
6.63067e-13
1.31546e-07
-8.37137e-27
3.5793e-22
1.90429e-17
6.6274e-13
1.31506e-07
-8.41137e-27
3.56806e-22
1.90136e-17
6.61934e-13
1.31406e-07
-8.41737e-27
3.56634e-22
1.9009e-17
6.61807e-13
1.3139e-07
-8.42766e-27
3.56341e-22
1.90013e-17
6.6159e-13
1.31361e-07
-8.42766e-27
3.56341e-22
1.90013e-17
6.6159e-13
1.31361e-07
-8.41737e-27
3.56634e-22
1.9009e-17
6.61807e-13
1.3139e-07
-8.41137e-27
3.56806e-22
1.90136e-17
6.61934e-13
1.31406e-07
-8.37137e-27
3.5793e-22
1.90429e-17
6.6274e-13
1.31506e-07
-8.35541e-27
3.58383e-22
1.90548e-17
6.63067e-13
1.31546e-07
-8.26352e-27
3.60843e-22
1.91177e-17
6.64788e-13
1.31757e-07
-8.23437e-27
3.6162e-22
1.91378e-17
6.65346e-13
1.31827e-07
-8.30943e-27
3.57591e-22
1.9023e-17
6.63362e-13
1.31918e-07
-8.34053e-27
3.56119e-22
1.89822e-17
6.62616e-13
1.31937e-07
-1.26427e-26
2.17502e-22
1.53889e-17
5.84767e-13
1.27994e-07
-1.26429e-26
2.176e-22
1.55302e-17
7.11712e-13
2.30861e-07
-8.34091e-27
3.56188e-22
1.91229e-17
7.90496e-13
2.35608e-07
-8.30974e-27
3.57662e-22
1.91636e-17
7.91162e-13
2.35564e-07
-8.23468e-27
3.61689e-22
1.92775e-17
7.92745e-13
2.35372e-07
-8.26383e-27
3.60912e-22
1.92573e-17
7.92102e-13
2.3527e-07
-8.35572e-27
3.58452e-22
1.91939e-17
7.90098e-13
2.34959e-07
-8.37168e-27
3.57999e-22
1.91819e-17
7.89724e-13
2.349e-07
-8.41168e-27
3.56875e-22
1.91523e-17
7.88787e-13
2.34753e-07
-8.41768e-27
3.56703e-22
1.91477e-17
7.88639e-13
2.34728e-07
-8.42797e-27
3.5641e-22
1.914e-17
7.88385e-13
2.34686e-07
-8.42797e-27
3.5641e-22
1.914e-17
7.88385e-13
2.34686e-07
-8.41768e-27
3.56703e-22
1.91477e-17
7.88639e-13
2.34728e-07
-8.41168e-27
3.56875e-22
1.91523e-17
7.88787e-13
2.34753e-07
-8.37168e-27
3.57999e-22
1.91819e-17
7.89724e-13
2.349e-07
-8.35572e-27
3.58452e-22
1.91939e-17
7.90098e-13
2.34959e-07
-8.26383e-27
3.60912e-22
1.92573e-17
7.92102e-13
2.3527e-07
-8.23468e-27
3.61689e-22
1.92775e-17
7.92745e-13
2.35372e-07
-8.30974e-27
3.57662e-22
1.91636e-17
7.91162e-13
2.35564e-07
-8.3409e-27
3.56188e-22
1.91229e-17
7.90496e-13
2.35608e-07
-1.26429e-26
2.176e-22
1.55302e-17
7.11712e-13
2.30861e-07
-1.2643e-26
2.17857e-22
1.58004e-17
9.1833e-13
3.68613e-07
-8.34114e-27
3.56409e-22
1.93914e-17
9.97608e-13
3.73721e-07
-8.3099e-27
3.57885e-22
1.94318e-17
9.98144e-13
3.73637e-07
-8.23485e-27
3.61909e-22
1.95441e-17
9.9906e-13
3.73276e-07
-8.26399e-27
3.61132e-22
1.95236e-17
9.98289e-13
3.73135e-07
-8.35588e-27
3.58671e-22
1.94593e-17
9.95858e-13
3.72701e-07
-8.37185e-27
3.58218e-22
1.94472e-17
9.9541e-13
3.72619e-07
-8.41185e-27
3.57093e-22
1.94172e-17
9.94275e-13
3.72414e-07
-8.41785e-27
3.56921e-22
1.94125e-17
9.94097e-13
3.7238e-07
-8.42813e-27
3.56628e-22
1.94046e-17
9.93786e-13
3.72321e-07
-8.42813e-27
3.56628e-22
1.94046e-17
9.93786e-13
3.72321e-07
-8.41784e-27
3.56921e-22
1.94125e-17
9.94097e-13
3.7238e-07
-8.41185e-27
3.57093e-22
1.94172e-17
9.94275e-13
3.72414e-07
-8.37185e-27
3.58218e-22
1.94472e-17
9.9541e-13
3.72619e-07
-8.35588e-27
3.58671e-22
1.94593e-17
9.95858e-13
3.72701e-07
-8.26399e-27
3.61132e-22
1.95236e-17
9.98289e-13
3.73135e-07
-8.23485e-27
3.61909e-22
1.95441e-17
9.9906e-13
3.73276e-07
-8.3099e-27
3.57885e-22
1.94318e-17
9.98144e-13
3.73637e-07
-8.34114e-27
3.56409e-22
1.93914e-17
9.97608e-13
3.73721e-07
-1.2643e-26
2.17857e-22
1.58004e-17
9.1833e-13
3.68613e-07
-1.26426e-26
2.18391e-22
1.62622e-17
1.22472e-12
5.40909e-07
-8.34107e-27
3.56898e-22
1.98492e-17
1.30356e-12
5.45827e-07
-8.30973e-27
3.58375e-22
1.98892e-17
1.3039e-12
5.45687e-07
-8.23469e-27
3.62394e-22
1.99987e-17
1.30378e-12
5.45057e-07
-8.26384e-27
3.61616e-22
1.99777e-17
1.30283e-12
5.44867e-07
-8.35572e-27
3.59153e-22
1.99119e-17
1.29978e-12
5.44274e-07
-8.37169e-27
3.58699e-22
1.98995e-17
1.29923e-12
5.44166e-07
-8.41169e-27
3.57574e-22
1.98688e-17
1.29782e-12
5.43886e-07
-8.41769e-27
3.57402e-22
1.9864e-17
1.29759e-12
5.43841e-07
-8.42798e-27
3.57109e-22
1.98559e-17
1.2972e-12
5.43761e-07
-8.42798e-27
3.57109e-22
1.98559e-17
1.2972e-12
5.43761e-07
-8.41769e-27
3.57402e-22
1.9864e-17
1.29759e-12
5.43841e-07
-8.41169e-27
3.57574e-22
1.98688e-17
1.29782e-12
5.43886e-07
-8.37169e-27
3.58699e-22
1.98995e-17
1.29923e-12
5.44166e-07
-8.35572e-27
3.59153e-22
1.99119e-17
1.29978e-12
5.44274e-07
-8.26384e-27
3.61616e-22
1.99777e-17
1.30283e-12
5.44867e-07
-8.23469e-27
3.62394e-22
1.99987e-17
1.30378e-12
5.45057e-07
-8.30973e-27
3.58375e-22
1.98892e-17
1.3039e-12
5.45687e-07
-8.34107e-27
3.56898e-22
1.98492e-17
1.30356e-12
5.45827e-07
-1.26426e-26
2.18391e-22
1.62622e-17
1.22472e-12
5.40909e-07
-1.26417e-26
2.19366e-22
1.6991e-17
1.65087e-12
7.47502e-07
-8.34042e-27
3.57814e-22
2.05699e-17
1.72778e-12
7.51555e-07
-8.30897e-27
3.59292e-22
2.06091e-17
1.72784e-12
7.51339e-07
-8.23395e-27
3.63301e-22
2.07141e-17
1.72621e-12
7.50312e-07
-8.2631e-27
3.62523e-22
2.06925e-17
1.72501e-12
7.50062e-07
-8.35499e-27
3.60055e-22
2.06242e-17
1.72112e-12
7.49263e-07
-8.37096e-27
3.59602e-22
2.06114e-17
1.72043e-12
7.4912e-07
-8.41096e-27
3.58474e-22
2.05796e-17
1.71863e-12
7.48746e-07
-8.41696e-27
3.58302e-22
2.05747e-17
1.71835e-12
7.48686e-07
-8.42725e-27
3.58008e-22
2.05663e-17
1.71784e-12
7.48579e-07
-8.42725e-27
3.58008e-22
2.05663e-17
1.71784e-12
7.48579e-07
-8.41696e-27
3.58302e-22
2.05747e-17
1.71835e-12
7.48686e-07
-8.41096e-27
3.58474e-22
2.05796e-17
1.71863e-12
7.48746e-07
-8.37096e-27
3.59602e-22
2.06114e-17
1.72043e-12
7.4912e-07
-8.35499e-27
3.60055e-22
2.06242e-17
1.72112e-12
7.49263e-07
-8.2631e-27
3.62523e-22
2.06925e-17
1.72501e-12
7.50062e-07
-8.23395e-27
3.63301e-22
2.07141e-17
1.72621e-12
7.50312e-07
-8.30897e-27
3.59292e-22
2.06091e-17
1.72784e-12
7.51339e-07
-8.34042e-27
3.57814e-22
2.05699e-17
1.72778e-12
7.51555e-07
-1.26417e-26
2.19366e-22
1.6991e-17
1.65087e-12
7.47502e-07
-1.26397e-26
2.20998e-22
1.80741e-17
2.21621e-12
9.87357e-07
-8.33878e-27
3.59368e-22
2.16387e-17
2.28905e-12
9.8971e-07
-8.30721e-27
3.60848e-22
2.16768e-17
2.28871e-12
9.89394e-07
-8.23222e-27
3.64841e-22
2.1775e-17
2.28496e-12
9.87815e-07
-8.26137e-27
3.6406e-22
2.17524e-17
2.28344e-12
9.87492e-07
-8.35327e-27
3.61587e-22
2.16806e-17
2.27842e-12
9.86427e-07
-8.36924e-27
3.61132e-22
2.16673e-17
2.27755e-12
9.86244e-07
-8.40925e-27
3.60001e-22
2.16339e-17
2.27523e-12
9.85749e-07
-8.41525e-27
3.59829e-22
2.16287e-17
2.27487e-12
9.85672e-07
-8.42554e-27
3.59534e-22
2.16198e-17
2.27422e-12
9.8553e-07
-8.42554e-27
3.59534e-22
2.16198e-17
2.27422e-12
9.8553e-07
-8.41525e-27
3.59829e-22
2.16287e-17
2.27487e-12
9.85672e-07
-8.40925e-27
3.60001e-22
2.16339e-17
2.27523e-12
9.85749e-07
-8.36924e-27
3.61132e-22
2.16673e-17
2.27755e-12
9.86244e-07
-8.35327e-27
3.61587e-22
2.16806e-17
2.27842e-12
9.86427e-07
-8.26137e-27
3.6406e-22
2.17524e-17
2.28344e-12
9.87492e-07
-8.23222e-27
3.64841e-22
2.1775e-17
2.28496e-12
9.87815e-07
-8.30721e-27
3.60848e-22
2.16768e-17
2.28871e-12
9.89394e-07
-8.33878e-27
3.59368e-22
2.16387e-17
2.28905e-12
9.8971e-07
-1.26397e-26
2.20998e-22
1.80741e-17
2.21621e-12
9.87357e-07
-1.2636e-26
2.23505e-22
1.95105e-17
2.78011e-12
9.85045e-07
-8.33561e-27
3.61772e-22
2.30546e-17
2.84886e-12
9.8745e-07
-8.30391e-27
3.63251e-22
2.30912e-17
2.84814e-12
9.87139e-07
-8.22898e-27
3.67221e-22
2.31803e-17
2.84229e-12
9.85581e-07
-8.25813e-27
3.66438e-22
2.31564e-17
2.84045e-12
9.85261e-07
-8.35004e-27
3.63954e-22
2.308e-17
2.83431e-12
9.84207e-07
-8.36602e-27
3.63497e-22
2.30659e-17
2.83326e-12
9.84026e-07
-8.40603e-27
3.62362e-22
2.30303e-17
2.83042e-12
9.83536e-07
-8.41204e-27
3.62189e-22
2.30249e-17
2.82999e-12
9.83459e-07
-8.42233e-27
3.61893e-22
2.30154e-17
2.82919e-12
9.83319e-07
-8.42233e-27
3.61893e-22
2.30154e-17
2.82919e-12
9.83319e-07
-8.41204e-27
3.62189e-22
2.30249e-17
2.82999e-12
9.83459e-07
-8.40604e-27
3.62362e-22
2.30303e-17
2.83042e-12
9.83536e-07
-8.36602e-27
3.63497e-22
2.30659e-17
2.83326e-12
9.84026e-07
-8.35005e-27
3.63954e-22
2.308e-17
2.83431e-12
9.84207e-07
-8.25813e-27
3.66438e-22
2.31564e-17
2.84045e-12
9.85261e-07
-8.22898e-27
3.67221e-22
2.31803e-17
2.84229e-12
9.85581e-07
-8.30391e-27
3.63251e-22
2.30912e-17
2.84814e-12
9.87139e-07
-8.33561e-27
3.61772e-22
2.30546e-17
2.84886e-12
9.8745e-07
-1.2636e-26
2.23505e-22
1.95105e-17
2.78011e-12
9.85045e-07
-1.26301e-26
2.27101e-22
2.12991e-17
3.34253e-12
9.82807e-07
-8.33024e-27
3.65235e-22
2.48164e-17
3.40721e-12
9.85262e-07
-8.2984e-27
3.66712e-22
2.4851e-17
3.40611e-12
9.84954e-07
-8.22354e-27
3.7065e-22
2.49289e-17
3.39817e-12
9.83417e-07
-8.2527e-27
3.69862e-22
2.49034e-17
3.39602e-12
9.831e-07
-8.34465e-27
3.67363e-22
2.48212e-17
3.38876e-12
9.82057e-07
-8.36063e-27
3.66904e-22
2.48062e-17
3.38753e-12
9.81877e-07
-8.40066e-27
3.65762e-22
2.4768e-17
3.38419e-12
9.81392e-07
-8.40666e-27
3.65588e-22
2.47621e-17
3.38368e-12
9.81316e-07
-8.41696e-27
3.6529e-22
2.47519e-17
3.38273e-12
9.81177e-07
-8.41696e-27
3.6529e-22
2.47519e-17
3.38273e-12
9.81177e-07
-8.40666e-27
3.65588e-22
2.47621e-17
3.38368e-12
9.81316e-07
-8.40066e-27
3.65762e-22
2.4768e-17
3.38419e-12
9.81392e-07
-8.36063e-27
3.66904e-22
2.48062e-17
3.38753e-12
9.81877e-07
-8.34465e-27
3.67363e-22
2.48212e-17
3.38876e-12
9.82057e-07
-8.2527e-27
3.69862e-22
2.49034e-17
3.39602e-12
9.831e-07
-8.22354e-27
3.7065e-22
2.49289e-17
3.39817e-12
9.83417e-07
-8.2984e-27
3.66712e-22
2.4851e-17
3.40611e-12
9.84954e-07
-8.33024e-27
3.65235e-22
2.48164e-17
3.40721e-12
9.85262e-07
-1.26301e-26
2.27101e-22
2.12991e-17
3.34253e-12
9.82807e-07
-1.2621e-26
2.32001e-22
2.34387e-17
3.90341e-12
9.80636e-07
-8.32185e-27
3.69965e-22
2.69229e-17
3.96402e-12
9.83138e-07
-8.28987e-27
3.7144e-22
2.69552e-17
3.96254e-12
9.82834e-07
-8.21513e-27
3.75333e-22
2.70196e-17
3.95254e-12
9.81317e-07
-8.24429e-27
3.7454e-22
2.69921e-17
3.95007e-12
9.81003e-07
-8.33629e-27
3.7202e-22
2.6903e-17
3.94171e-12
9.7997e-07
-8.35228e-27
3.71558e-22
2.6887e-17
3.94031e-12
9.79792e-07
-8.39233e-27
3.70407e-22
2.68456e-17
3.93645e-12
9.79311e-07
-8.39834e-27
3.70231e-22
2.68393e-17
3.93587e-12
9.79236e-07
-8.40864e-27
3.6993e-22
2.68282e-17
3.93478e-12
9.79098e-07
-8.40864e-27
3.6993e-22
2.68282e-17
3.93478e-12
9.79098e-07
-8.39834e-27
3.70231e-22
2.68393e-17
3.93587e-12
9.79236e-07
-8.39233e-27
3.70407e-22
2.68456e-17
3.93645e-12
9.79311e-07
-8.35228e-27
3.71558e-22
2.6887e-17
3.94031e-12
9.79792e-07
-8.33629e-27
3.7202e-22
2.6903e-17
3.94171e-12
9.7997e-07
-8.24429e-27
3.7454e-22
2.69921e-17
3.95007e-12
9.81003e-07
-8.21513e-27
3.75333e-22
2.70196e-17
3.95254e-12
9.81317e-07
-8.28987e-27
3.7144e-22
2.69552e-17
3.96254e-12
9.82834e-07
-8.32185e-27
3.69965e-22
2.69229e-17
3.96402e-12
9.83138e-07
-1.2621e-26
2.32001e-22
2.34387e-17
3.90341e-12
9.80636e-07
-1.26077e-26
2.38419e-22
2.5928e-17
4.46267e-12
9.78527e-07
-8.30951e-27
3.76172e-22
2.93728e-17
4.51921e-12
9.81073e-07
-8.27738e-27
3.77641e-22
2.94024e-17
4.51736e-12
9.80773e-07
-8.2028e-27
3.81476e-22
2.94511e-17
4.50531e-12
9.79276e-07
-8.23199e-27
3.80676e-22
2.94214e-17
4.50254e-12
9.78965e-07
-8.32405e-27
3.78129e-22
2.93243e-17
4.49307e-12
9.77942e-07
-8.34005e-27
3.77663e-22
2.9307e-17
4.4915e-12
9.77765e-07
-8.38014e-27
3.765e-22
2.9262e-17
4.48714e-12
9.77289e-07
-8.38615e-27
3.76322e-22
2.92552e-17
4.48649e-12
9.77214e-07
-8.39646e-27
3.76018e-22
2.9243e-17
4.48525e-12
9.77078e-07
-8.39646e-27
3.76018e-22
2.9243e-17
4.48525e-12
9.77078e-07
-8.38615e-27
3.76322e-22
2.92552e-17
4.48649e-12
9.77214e-07
-8.38014e-27
3.765e-22
2.9262e-17
4.48714e-12
9.77289e-07
-8.34005e-27
3.77663e-22
2.9307e-17
4.4915e-12
9.77765e-07
-8.32405e-27
3.78129e-22
2.93243e-17
4.49307e-12
9.77942e-07
-8.23199e-27
3.80676e-22
2.94214e-17
4.50254e-12
9.78965e-07
-8.2028e-27
3.81476e-22
2.94511e-17
4.50531e-12
9.79276e-07
-8.27738e-27
3.77641e-22
2.94024e-17
4.51736e-12
9.80773e-07
-8.30951e-27
3.76172e-22
2.93728e-17
4.51921e-12
9.81073e-07
-1.26077e-26
2.38419e-22
2.5928e-17
4.46267e-12
9.78527e-07
-1.25892e-26
2.46568e-22
2.87655e-17
5.02023e-12
9.76475e-07
-8.29215e-27
3.84061e-22
3.21646e-17
5.0727e-12
9.79065e-07
-8.25987e-27
3.85522e-22
3.21911e-17
5.07048e-12
9.78768e-07
-8.18551e-27
3.89285e-22
3.2222e-17
5.05641e-12
9.7729e-07
-8.21472e-27
3.88475e-22
3.21898e-17
5.05333e-12
9.76982e-07
-8.30688e-27
3.85894e-22
3.20836e-17
5.04278e-12
9.75967e-07
-8.3229e-27
3.85423e-22
3.20648e-17
5.04103e-12
9.75792e-07
-8.36303e-27
3.84244e-22
3.20157e-17
5.03617e-12
9.7532e-07
-8.36904e-27
3.84064e-22
3.20083e-17
5.03545e-12
9.75246e-07
-8.37937e-27
3.83755e-22
3.19949e-17
5.03406e-12
9.75111e-07
-8.37937e-27
3.83755e-22
3.19949e-17
5.03406e-12
9.75111e-07
-8.36904e-27
3.84064e-22
3.20083e-17
5.03545e-12
9.75246e-07
-8.36303e-27
3.84244e-22
3.20157e-17
5.03617e-12
9.7532e-07
-8.3229e-27
3.85423e-22
3.20648e-17
5.04103e-12
9.75792e-07
-8.30688e-27
3.85894e-22
3.20836e-17
5.04278e-12
9.75967e-07
-8.21472e-27
3.88475e-22
3.21898e-17
5.05333e-12
9.76982e-07
-8.18551e-27
3.89285e-22
3.2222e-17
5.05641e-12
9.7729e-07
-8.25987e-27
3.85522e-22
3.21911e-17
5.07048e-12
9.78768e-07
-8.29215e-27
3.8406e-22
3.21646e-17
5.0727e-12
9.79065e-07
-1.25892e-26
2.46568e-22
2.87655e-17
5.02023e-12
9.76475e-07
-1.25642e-26
2.56659e-22
3.19498e-17
5.57599e-12
9.74477e-07
-8.26855e-27
3.93838e-22
3.52968e-17
5.6244e-12
9.77108e-07
-8.23612e-27
3.95289e-22
3.53199e-17
5.62182e-12
9.76815e-07
-8.16205e-27
3.98962e-22
3.53308e-17
5.60575e-12
9.75354e-07
-8.1913e-27
3.98141e-22
3.52958e-17
5.60236e-12
9.75049e-07
-8.2836e-27
3.95518e-22
3.51794e-17
5.59073e-12
9.74043e-07
-8.29963e-27
3.9504e-22
3.51591e-17
5.58882e-12
9.7387e-07
-8.33982e-27
3.93841e-22
3.51053e-17
5.58347e-12
9.73402e-07
-8.34585e-27
3.93659e-22
3.50972e-17
5.58267e-12
9.73329e-07
-8.35619e-27
3.93344e-22
3.50825e-17
5.58114e-12
9.73194e-07
-8.35619e-27
3.93344e-22
3.50825e-17
5.58114e-12
9.73194e-07
-8.34585e-27
3.93659e-22
3.50972e-17
5.58267e-12
9.73329e-07
-8.33982e-27
3.93841e-22
3.51053e-17
5.58347e-12
9.73402e-07
-8.29963e-27
3.9504e-22
3.51591e-17
5.58882e-12
9.7387e-07
-8.2836e-27
3.95518e-22
3.51794e-17
5.59073e-12
9.74043e-07
-8.1913e-27
3.98141e-22
3.52958e-17
5.60236e-12
9.75049e-07
-8.16206e-27
3.98962e-22
3.53308e-17
5.60575e-12
9.75354e-07
-8.23612e-27
3.95289e-22
3.53199e-17
5.62182e-12
9.76815e-07
-8.26855e-27
3.93837e-22
3.52968e-17
5.6244e-12
9.77108e-07
-1.25642e-26
2.56659e-22
3.19498e-17
5.57599e-12
9.74477e-07
-1.25313e-26
2.68903e-22
3.54794e-17
6.12988e-12
9.72527e-07
-8.23737e-27
4.05707e-22
3.87679e-17
6.17423e-12
9.75197e-07
-8.2048e-27
4.07146e-22
3.87872e-17
6.1713e-12
9.74908e-07
-8.13112e-27
4.10711e-22
3.8776e-17
6.15324e-12
9.73465e-07
-8.16041e-27
4.09876e-22
3.87379e-17
6.14956e-12
9.73162e-07
-8.25289e-27
4.072e-22
3.86102e-17
6.13686e-12
9.72165e-07
-8.26895e-27
4.06715e-22
3.85882e-17
6.13477e-12
9.71993e-07
-8.30922e-27
4.05493e-22
3.85293e-17
6.12893e-12
9.71529e-07
-8.31526e-27
4.05307e-22
3.85205e-17
6.12806e-12
9.71457e-07
-8.32562e-27
4.04986e-22
3.85043e-17
6.1264e-12
9.71324e-07
-8.32562e-27
4.04986e-22
3.85043e-17
6.1264e-12
9.71324e-07
-8.31526e-27
4.05307e-22
3.85205e-17
6.12806e-12
9.71457e-07
-8.30922e-27
4.05493e-22
3.85293e-17
6.12893e-12
9.71529e-07
-8.26895e-27
4.06715e-22
3.85882e-17
6.13477e-12
9.71993e-07
-8.25289e-27
4.072e-22
3.86102e-17
6.13686e-12
9.72165e-07
-8.16041e-27
4.09876e-22
3.87379e-17
6.14956e-12
9.73162e-07
-8.13112e-27
4.10711e-22
3.8776e-17
6.15324e-12
9.73465e-07
-8.2048e-27
4.07146e-22
3.87872e-17
6.1713e-12
9.74908e-07
-8.23737e-27
4.05707e-22
3.87678e-17
6.17423e-12
9.75197e-07
-1.25313e-26
2.68903e-22
3.54794e-17
6.12988e-12
9.72527e-07
-1.2489e-26
2.83509e-22
3.93525e-17
6.6818e-12
9.70622e-07
-8.19716e-27
4.19873e-22
4.25761e-17
6.7221e-12
9.7333e-07
-8.16445e-27
4.21296e-22
4.25912e-17
6.71881e-12
9.73044e-07
-8.09126e-27
4.24732e-22
4.25559e-17
6.6988e-12
9.71618e-07
-8.12061e-27
4.2388e-22
4.25144e-17
6.69482e-12
9.71317e-07
-8.21331e-27
4.21143e-22
4.23745e-17
6.68107e-12
9.70329e-07
-8.22941e-27
4.20648e-22
4.23506e-17
6.67881e-12
9.70158e-07
-8.26978e-27
4.19398e-22
4.22861e-17
6.67249e-12
9.69698e-07
-8.27583e-27
4.19208e-22
4.22765e-17
6.67155e-12
9.69627e-07
-8.28623e-27
4.18879e-22
4.22586e-17
6.66974e-12
9.69494e-07
-8.28623e-27
4.18879e-22
4.22586e-17
6.66974e-12
9.69494e-07
-8.27583e-27
4.19208e-22
4.22765e-17
6.67155e-12
9.69627e-07
-8.26978e-27
4.19398e-22
4.22861e-17
6.67249e-12
9.69698e-07
-8.22941e-27
4.20648e-22
4.23506e-17
6.67881e-12
9.70158e-07
-8.21331e-27
4.21143e-22
4.23745e-17
6.68107e-12
9.70329e-07
-8.12061e-27
4.2388e-22
4.25144e-17
6.69482e-12
9.71317e-07
-8.09126e-27
4.24732e-22
4.25559e-17
6.6988e-12
9.71618e-07
-8.16445e-27
4.21296e-22
4.25912e-17
6.71881e-12
9.73044e-07
-8.19716e-27
4.19873e-22
4.25761e-17
6.7221e-12
9.7333e-07
-1.2489e-26
2.83509e-22
3.93525e-17
6.6818e-12
9.70622e-07
-1.24356e-26
3.00686e-22
4.35674e-17
7.23165e-12
9.68752e-07
-8.14629e-27
4.36538e-22
4.67198e-17
7.2679e-12
9.71497e-07
-8.11346e-27
4.3794e-22
4.67304e-17
7.26426e-12
9.71214e-07
-8.04089e-27
4.41226e-22
4.66689e-17
7.24233e-12
9.69804e-07
-8.07031e-27
4.40355e-22
4.66238e-17
7.23806e-12
9.69506e-07
-8.1633e-27
4.37545e-22
4.64705e-17
7.22326e-12
9.68526e-07
-8.17944e-27
4.37039e-22
4.64445e-17
7.22084e-12
9.68357e-07
-8.21994e-27
4.35756e-22
4.63739e-17
7.21403e-12
9.67901e-07
-8.22601e-27
4.35562e-22
4.63634e-17
7.21302e-12
9.67829e-07
-8.23645e-27
4.35223e-22
4.63439e-17
7.21108e-12
9.67698e-07
-8.23645e-27
4.35223e-22
4.63439e-17
7.21108e-12
9.67698e-07
-8.22601e-27
4.35562e-22
4.63634e-17
7.21302e-12
9.67829e-07
-8.21994e-27
4.35756e-22
4.63739e-17
7.21403e-12
9.67901e-07
-8.17944e-27
4.37039e-22
4.64445e-17
7.22084e-12
9.68357e-07
-8.1633e-27
4.37545e-22
4.64705e-17
7.22326e-12
9.68526e-07
-8.07032e-27
4.40355e-22
4.66238e-17
7.23806e-12
9.69506e-07
-8.04089e-27
4.41226e-22
4.66689e-17
7.24233e-12
9.69804e-07
-8.11346e-27
4.3794e-22
4.67304e-17
7.26426e-12
9.71214e-07
-8.14629e-27
4.36537e-22
4.67198e-17
7.2679e-12
9.71496e-07
-1.24356e-26
3.00686e-22
4.35674e-17
7.23165e-12
9.68752e-07
-1.23692e-26
3.20641e-22
4.81224e-17
7.77932e-12
9.66882e-07
-8.08305e-27
4.55901e-22
5.1197e-17
7.81153e-12
9.69663e-07
-8.0501e-27
4.5728e-22
5.12028e-17
7.80755e-12
9.69384e-07
-7.97829e-27
4.60392e-22
5.11131e-17
7.78371e-12
9.67991e-07
-8.00781e-27
4.59498e-22
5.1064e-17
7.77916e-12
9.67695e-07
-8.10116e-27
4.56604e-22
5.08964e-17
7.76332e-12
9.66723e-07
-8.11735e-27
4.56085e-22
5.08682e-17
7.76074e-12
9.66555e-07
-8.15801e-27
4.54764e-22
5.07911e-17
7.75346e-12
9.66103e-07
-8.16411e-27
4.54564e-22
5.07797e-17
7.75238e-12
9.66032e-07
-8.17459e-27
4.54215e-22
5.07582e-17
7.7503e-12
9.65902e-07
-8.17459e-27
4.54215e-22
5.07582e-17
7.7503e-12
9.65902e-07
-8.16411e-27
4.54564e-22
5.07797e-17
7.75238e-12
9.66032e-07
-8.15801e-27
4.54764e-22
5.07911e-17
7.75346e-12
9.66103e-07
-8.11735e-27
4.56085e-22
5.08682e-17
7.76074e-12
9.66555e-07
-8.10116e-27
4.56604e-22
5.08964e-17
7.76332e-12
9.66723e-07
-8.00781e-27
4.59497e-22
5.1064e-17
7.77916e-12
9.67695e-07
-7.9783e-27
4.60392e-22
5.11131e-17
7.78371e-12
9.67991e-07
-8.05011e-27
4.5728e-22
5.12028e-17
7.80755e-12
9.69384e-07
-8.08305e-27
4.55901e-22
5.1197e-17
7.81153e-12
9.69663e-07
-1.23692e-26
3.20641e-22
4.81224e-17
7.77932e-12
9.66882e-07
0.000429444
8.0654e-05
2.43496e-06
1.3287e-08
2.69945e-12
7.21482e-14
8.30712e-14
8.34618e-14
8.35463e-14
8.35613e-14
8.35679e-14
8.36107e-14
8.38262e-14
8.40849e-14
8.62045e-14
8.80022e-14
1.06807e-13
1.16926e-13
3.73589e-13
4.36501e-13
0.000471103
8.95591e-05
2.80701e-06
1.65961e-08
7.00923e-12
7.2417e-14
8.30582e-14
8.34582e-14
8.35446e-14
8.35599e-14
8.35644e-14
8.3599e-14
8.38193e-14
8.40825e-14
8.62388e-14
8.80581e-14
1.07112e-13
1.17299e-13
3.76957e-13
4.40618e-13
0.000471345
8.95853e-05
2.80621e-06
1.65879e-08
7.00384e-12
7.24198e-14
8.3058e-14
8.34582e-14
8.35446e-14
8.356e-14
8.35644e-14
8.35997e-14
8.38201e-14
8.40835e-14
8.62406e-14
8.80603e-14
1.07118e-13
1.17305e-13
3.76991e-13
4.40652e-13
0.000472066
8.95496e-05
2.79231e-06
1.64522e-08
6.88045e-12
7.24677e-14
8.30575e-14
8.34583e-14
8.35449e-14
8.35603e-14
8.35651e-14
8.3603e-14
8.38239e-14
8.40876e-14
8.62473e-14
8.80682e-14
1.07138e-13
1.17327e-13
3.77097e-13
4.40745e-13
0.000471663
8.94553e-05
2.78758e-06
1.64097e-08
6.82248e-12
7.24611e-14
8.30575e-14
8.34583e-14
8.35449e-14
8.35603e-14
8.35651e-14
8.36031e-14
8.3824e-14
8.40878e-14
8.62475e-14
8.80685e-14
1.07139e-13
1.17327e-13
3.77099e-13
4.40747e-13
0.000470513
8.91431e-05
2.77092e-06
1.626e-08
6.62403e-12
7.24414e-14
8.30576e-14
8.34583e-14
8.35449e-14
8.35603e-14
8.35651e-14
8.36033e-14
8.38242e-14
8.4088e-14
8.62479e-14
8.80689e-14
1.0714e-13
1.17328e-13
3.77103e-13
4.4075e-13
0.000470283
8.909e-05
2.76835e-06
1.62371e-08
6.5919e-12
7.24368e-14
8.30576e-14
8.34583e-14
8.35449e-14
8.35603e-14
8.35651e-14
8.36033e-14
8.38242e-14
8.4088e-14
8.62479e-14
8.80689e-14
1.0714e-13
1.17328e-13
3.77103e-13
4.4075e-13
0.000469744
8.89471e-05
2.76091e-06
1.61706e-08
6.50104e-12
7.24245e-14
8.30576e-14
8.34583e-14
8.35449e-14
8.35603e-14
8.35651e-14
8.36033e-14
8.38243e-14
8.4088e-14
8.6248e-14
8.8069e-14
1.0714e-13
1.17329e-13
3.77103e-13
4.4075e-13
0.000469654
8.89261e-05
2.7599e-06
1.61615e-08
6.48814e-12
7.24225e-14
8.30576e-14
8.34583e-14
8.35449e-14
8.35603e-14
8.35651e-14
8.36033e-14
8.38243e-14
8.4088e-14
8.6248e-14
8.8069e-14
1.0714e-13
1.17329e-13
3.77103e-13
4.4075e-13
0.000469507
8.88869e-05
2.75785e-06
1.61433e-08
6.46294e-12
7.24187e-14
8.30577e-14
8.34583e-14
8.35449e-14
8.35603e-14
8.35651e-14
8.36033e-14
8.38243e-14
8.4088e-14
8.6248e-14
8.8069e-14
1.0714e-13
1.17329e-13
3.77103e-13
4.4075e-13
0.000469507
8.88869e-05
2.75785e-06
1.61433e-08
6.46294e-12
7.24187e-14
8.30577e-14
8.34583e-14
8.35449e-14
8.35603e-14
8.35651e-14
8.36033e-14
8.38243e-14
8.4088e-14
8.6248e-14
8.8069e-14
1.0714e-13
1.17329e-13
3.77103e-13
4.4075e-13
0.000469654
8.89261e-05
2.7599e-06
1.61615e-08
6.48814e-12
7.24225e-14
8.30576e-14
8.34583e-14
8.35449e-14
8.35603e-14
8.35651e-14
8.36033e-14
8.38243e-14
8.4088e-14
8.6248e-14
8.8069e-14
1.0714e-13
1.17329e-13
3.77103e-13
4.4075e-13
0.000469744
8.89471e-05
2.76091e-06
1.61706e-08
6.50104e-12
7.24245e-14
8.30576e-14
8.34583e-14
8.35449e-14
8.35603e-14
8.35651e-14
8.36033e-14
8.38243e-14
8.4088e-14
8.6248e-14
8.8069e-14
1.0714e-13
1.17329e-13
3.77103e-13
4.4075e-13
0.000470283
8.909e-05
2.76835e-06
1.62371e-08
6.5919e-12
7.24368e-14
8.30576e-14
8.34583e-14
8.35449e-14
8.35603e-14
8.35651e-14
8.36033e-14
8.38242e-14
8.4088e-14
8.62479e-14
8.80689e-14
1.0714e-13
1.17328e-13
3.77103e-13
4.4075e-13
0.000470513
8.91431e-05
2.77092e-06
1.626e-08
6.62403e-12
7.24414e-14
8.30576e-14
8.34583e-14
8.35449e-14
8.35603e-14
8.35651e-14
8.36033e-14
8.38242e-14
8.4088e-14
8.62479e-14
8.80689e-14
1.0714e-13
1.17328e-13
3.77103e-13
4.4075e-13
0.000471663
8.94553e-05
2.78758e-06
1.64097e-08
6.82248e-12
7.24611e-14
8.30575e-14
8.34583e-14
8.35449e-14
8.35603e-14
8.35651e-14
8.36031e-14
8.3824e-14
8.40878e-14
8.62475e-14
8.80685e-14
1.07139e-13
1.17327e-13
3.77099e-13
4.40747e-13
0.000472066
8.95496e-05
2.79231e-06
1.64522e-08
6.88045e-12
7.24677e-14
8.30575e-14
8.34583e-14
8.35449e-14
8.35603e-14
8.35651e-14
8.3603e-14
8.38239e-14
8.40876e-14
8.62473e-14
8.80682e-14
1.07138e-13
1.17327e-13
3.77097e-13
4.40745e-13
0.000471345
8.95853e-05
2.80621e-06
1.65879e-08
7.00384e-12
7.24198e-14
8.3058e-14
8.34582e-14
8.35446e-14
8.356e-14
8.35644e-14
8.35997e-14
8.38201e-14
8.40835e-14
8.62406e-14
8.80603e-14
1.07118e-13
1.17305e-13
3.76991e-13
4.40652e-13
0.000471103
8.95591e-05
2.80701e-06
1.65961e-08
7.00923e-12
7.2417e-14
8.30582e-14
8.34582e-14
8.35446e-14
8.35599e-14
8.35644e-14
8.3599e-14
8.38193e-14
8.40825e-14
8.62388e-14
8.80581e-14
1.07112e-13
1.17299e-13
3.76957e-13
4.40618e-13
0.000429444
8.0654e-05
2.43496e-06
1.3287e-08
2.69945e-12
7.21482e-14
8.30712e-14
8.34618e-14
8.35463e-14
8.35613e-14
8.35679e-14
8.36107e-14
8.38262e-14
8.40849e-14
8.62045e-14
8.80022e-14
1.06807e-13
1.16926e-13
3.73589e-13
4.36501e-13
0.00784811
0.00204306
9.25381e-05
7.61131e-07
8.30683e-10
3.63527e-12
3.76891e-12
3.78901e-12
3.79338e-12
3.79417e-12
3.79449e-12
3.79649e-12
3.80651e-12
3.81844e-12
3.9159e-12
3.99787e-12
4.85483e-12
5.31099e-12
1.68627e-11
1.96335e-11
0.00840783
0.00221495
0.000103315
8.89888e-07
1.06916e-09
3.69805e-12
3.76824e-12
3.78883e-12
3.79329e-12
3.7941e-12
3.79434e-12
3.79596e-12
3.80621e-12
3.81835e-12
3.91751e-12