/*--------------------------------*- C++ -*----------------------------------*\
  =========                 |
  \\      /  F ield         | OpenFOAM: The Open Source CFD Toolbox
   \\    /   O peration     | Website:  https://openfoam.org
    \\  /    A nd           | Version:  8
     \\/     M anipulation  |
\*---------------------------------------------------------------------------*/
FoamFile
{
    version     2.0;
    format      ascii;
    class       volScalarField;
    location    "3.6";
    object      p;
}
// * * * * * * * * * * * * * * * * * * * * * * * * * * * * * * * * * * * * * //

dimensions      [0 2 -2 0 0 0 0];

internalField   nonuniform List<scalar> 
180000
(
0.000899339
0.000838494
0.000876681
0.000746906
0.000815573
0.000884805
0.000824191
0.000862095
0.000733643
0.000801168
0.000884008
0.000823431
0.000861298
0.000732977
0.000800417
0.000879747
0.000819333
0.000857021
0.000729361
0.000796404
0.000879207
0.000818818
0.000856476
0.00072891
0.000795892
0.000877272
0.00081697
0.000854528
0.000727286
0.000794069
0.000876973
0.000816685
0.000854226
0.000727036
0.000793784
0.000876098
0.000815851
0.000853344
0.000726302
0.000792957
0.000875971
0.00081573
0.000853215
0.000726196
0.000792836
0.000875719
0.00081549
0.000852961
0.000725985
0.000792597
0.000875719
0.00081549
0.000852961
0.000725985
0.000792597
0.000875971
0.00081573
0.000853215
0.000726196
0.000792836
0.000876098
0.000815851
0.000853344
0.000726302
0.000792957
0.000876973
0.000816685
0.000854226
0.000727036
0.000793784
0.000877272
0.00081697
0.000854528
0.000727286
0.000794069
0.000879207
0.000818818
0.000856476
0.00072891
0.000795892
0.000879747
0.000819333
0.000857021
0.000729361
0.000796404
0.000884008
0.000823431
0.000861298
0.000732977
0.000800417
0.000884805
0.000824191
0.000862095
0.000733643
0.000801168
0.000899339
0.000838494
0.000876681
0.000746906
0.000815573
0.000734244
0.000705973
0.00072465
0.000655635
0.00069481
0.000727881
0.000698818
0.000717923
0.000647827
0.000687268
0.000727525
0.000698431
0.000717549
0.000647429
0.000686868
0.000725576
0.000696301
0.000715492
0.000645228
0.000684687
0.00072533
0.000696034
0.00071523
0.000644954
0.000684409
0.000724437
0.000695066
0.000714286
0.000643961
0.000683412
0.000724299
0.000694918
0.00071414
0.000643808
0.000683256
0.000723894
0.000694479
0.00071371
0.000643359
0.000682803
0.000723835
0.000694416
0.000713648
0.000643294
0.000682736
0.000723718
0.00069429
0.000713524
0.000643164
0.000682605
0.000723718
0.00069429
0.000713524
0.000643164
0.000682605
0.000723835
0.000694416
0.000713648
0.000643294
0.000682736
0.000723894
0.000694479
0.00071371
0.000643359
0.000682803
0.000724299
0.000694918
0.00071414
0.000643808
0.000683256
0.000724437
0.000695066
0.000714286
0.000643961
0.000683412
0.00072533
0.000696034
0.00071523
0.000644954
0.000684409
0.000725576
0.000696301
0.000715492
0.000645228
0.000684687
0.000727525
0.000698431
0.000717549
0.000647429
0.000686868
0.000727881
0.000698818
0.000717923
0.000647827
0.000687268
0.000734244
0.000705973
0.00072465
0.000655635
0.00069481
0.000526983
0.00050455
0.000519823
0.000465916
0.000498852
0.000521876
0.000499082
0.000514535
0.000460244
0.000493155
0.00052159
0.000498785
0.00051424
0.000459953
0.000492851
0.000519997
0.000497121
0.00051259
0.00045831
0.00049116
0.000519797
0.000496915
0.000512383
0.000458108
0.000490947
0.000519068
0.00049616
0.000511626
0.000457367
0.000490175
0.000518957
0.000496045
0.00051151
0.000457254
0.000490055
0.000518627
0.000495703
0.000511167
0.000456919
0.000489704
0.000518579
0.000495654
0.000511117
0.000456871
0.000489653
0.000518484
0.000495556
0.000511018
0.000456774
0.000489552
0.000518484
0.000495556
0.000511018
0.000456774
0.000489552
0.000518579
0.000495654
0.000511117
0.000456871
0.000489653
0.000518627
0.000495703
0.000511167
0.000456919
0.000489704
0.000518957
0.000496045
0.00051151
0.000457254
0.000490055
0.000519068
0.00049616
0.000511626
0.000457367
0.000490175
0.000519797
0.000496915
0.000512383
0.000458108
0.000490947
0.000519997
0.000497121
0.00051259
0.00045831
0.00049116
0.00052159
0.000498785
0.00051424
0.000459953
0.000492851
0.000521876
0.000499082
0.000514535
0.000460244
0.000493155
0.000526983
0.00050455
0.000519823
0.000465916
0.000498852
0.000492337
0.000466151
0.000484082
0.000423503
0.000462723
0.000486256
0.000459994
0.000477923
0.00041755
0.000456435
0.000485915
0.000459659
0.000477578
0.000417242
0.000456097
0.000484013
0.000457773
0.000475648
0.000415497
0.00045421
0.000483776
0.00045754
0.000475407
0.000415283
0.000453973
0.000482909
0.000456686
0.000474525
0.000414497
0.000453112
0.000482776
0.000456557
0.00047439
0.000414377
0.00045298
0.000482384
0.000456171
0.00047399
0.000414022
0.000452589
0.000482327
0.000456116
0.000473932
0.000413971
0.000452532
0.000482214
0.000456005
0.000473817
0.000413868
0.00045242
0.000482214
0.000456005
0.000473817
0.000413868
0.00045242
0.000482327
0.000456116
0.000473932
0.000413971
0.000452532
0.000482384
0.000456171
0.00047399
0.000414022
0.000452589
0.000482776
0.000456557
0.00047439
0.000414377
0.00045298
0.000482909
0.000456686
0.000474525
0.000414497
0.000453112
0.000483776
0.00045754
0.000475407
0.000415283
0.000453973
0.000484013
0.000457773
0.000475648
0.000415497
0.00045421
0.000485915
0.000459659
0.000477578
0.000417242
0.000456097
0.000486256
0.000459994
0.000477923
0.00041755
0.000456435
0.000492337
0.000466151
0.000484082
0.000423503
0.000462723
0.00051527
0.000487587
0.000506891
0.000442159
0.000486967
0.000508864
0.000481098
0.0005004
0.000435895
0.000480363
0.0005085
0.00048074
0.000500033
0.000435568
0.000480002
0.000506466
0.000478722
0.000497969
0.000433702
0.000477981
0.000506212
0.000478474
0.000497711
0.000433473
0.000477728
0.000505284
0.00047756
0.000496767
0.000432632
0.000476806
0.000505142
0.000477421
0.000496622
0.000432505
0.000476664
0.000504722
0.000477008
0.000496194
0.000432125
0.000476245
0.000504662
0.000476949
0.000496132
0.00043207
0.000476185
0.000504541
0.00047683
0.000496009
0.000431961
0.000476064
0.000504541
0.00047683
0.000496009
0.000431961
0.000476064
0.000504662
0.000476949
0.000496132
0.00043207
0.000476185
0.000504722
0.000477008
0.000496194
0.000432125
0.000476245
0.000505142
0.000477421
0.000496622
0.000432505
0.000476664
0.000505284
0.00047756
0.000496767
0.000432632
0.000476806
0.000506212
0.000478474
0.000497711
0.000433473
0.000477728
0.000506466
0.000478722
0.000497969
0.000433702
0.000477981
0.0005085
0.00048074
0.000500033
0.000435568
0.000480002
0.000508864
0.000481098
0.0005004
0.000435895
0.000480363
0.00051527
0.000487587
0.000506891
0.000442159
0.000486967
0.000528066
0.000500951
0.000520346
0.000455675
0.000504104
0.000521842
0.0004946
0.000514024
0.000449485
0.000497642
0.000521485
0.000494246
0.000513662
0.000449158
0.000497283
0.000519467
0.000492231
0.00051161
0.000447276
0.000495255
0.000519216
0.000491983
0.000511354
0.000447046
0.000495002
0.000518294
0.00049107
0.000510414
0.000446197
0.000494076
0.000518154
0.000490931
0.000510271
0.000446069
0.000493934
0.000517736
0.000490518
0.000509844
0.000445685
0.000493513
0.000517677
0.000490459
0.000509783
0.00044563
0.000493452
0.000517557
0.00049034
0.00050966
0.000445519
0.000493331
0.000517557
0.00049034
0.00050966
0.000445519
0.000493331
0.000517677
0.000490459
0.000509783
0.00044563
0.000493452
0.000517736
0.000490518
0.000509844
0.000445685
0.000493513
0.000518154
0.000490931
0.000510271
0.000446069
0.000493934
0.000518294
0.00049107
0.000510414
0.000446197
0.000494076
0.000519216
0.000491983
0.000511354
0.000447046
0.000495002
0.000519467
0.000492231
0.00051161
0.000447276
0.000495255
0.000521485
0.000494246
0.000513662
0.000449158
0.000497283
0.000521842
0.0004946
0.000514024
0.000449485
0.000497642
0.000528066
0.000500951
0.000520346
0.000455675
0.000504104
0.000528002
0.000501635
0.000520985
0.000457182
0.000508896
0.000521991
0.00049549
0.000514877
0.000451173
0.00050265
0.000521642
0.000495144
0.000514524
0.000450852
0.000502297
0.000519653
0.000493155
0.0005125
0.000448987
0.000500288
0.000519407
0.000492911
0.000512249
0.00044876
0.000500038
0.000518498
0.000492008
0.000511321
0.000447917
0.000499118
0.00051836
0.000491872
0.00051118
0.00044779
0.000498978
0.000517948
0.000491463
0.000510759
0.000447409
0.00049856
0.000517889
0.000491405
0.000510699
0.000447355
0.0004985
0.000517771
0.000491287
0.000510577
0.000447245
0.00049838
0.000517771
0.000491287
0.000510577
0.000447245
0.00049838
0.000517889
0.000491405
0.000510699
0.000447355
0.0004985
0.000517948
0.000491463
0.000510759
0.000447409
0.00049856
0.00051836
0.000491872
0.00051118
0.00044779
0.000498978
0.000518498
0.000492008
0.000511321
0.000447917
0.000499118
0.000519407
0.000492911
0.000512249
0.00044876
0.000500038
0.000519653
0.000493155
0.0005125
0.000448987
0.000500288
0.000521642
0.000495144
0.000514524
0.000450852
0.000502297
0.000521991
0.00049549
0.000514877
0.000451173
0.00050265
0.000528002
0.000501635
0.000520985
0.000457182
0.000508896
0.00052537
0.00049942
0.000518914
0.000455531
0.000510577
0.000519487
0.000493414
0.000512942
0.000449665
0.000504481
0.000519142
0.000493073
0.000512593
0.000449348
0.000504132
0.00051716
0.000491092
0.000510578
0.000447491
0.000502125
0.000516915
0.000490851
0.000510328
0.000447266
0.000501877
0.000516008
0.00048995
0.000509403
0.000446425
0.000500958
0.000515871
0.000489815
0.000509263
0.000446299
0.000500818
0.000515459
0.000489408
0.000508843
0.000445919
0.0005004
0.000515401
0.00048935
0.000508783
0.000445865
0.00050034
0.000515283
0.000489233
0.000508662
0.000445756
0.00050022
0.000515283
0.000489233
0.000508662
0.000445756
0.00050022
0.000515401
0.00048935
0.000508783
0.000445865
0.00050034
0.000515459
0.000489408
0.000508843
0.000445919
0.0005004
0.000515871
0.000489815
0.000509263
0.000446299
0.000500818
0.000516008
0.00048995
0.000509403
0.000446425
0.000500958
0.000516915
0.000490851
0.000510328
0.000447266
0.000501877
0.00051716
0.000491092
0.000510578
0.000447491
0.000502125
0.000519142
0.000493073
0.000512593
0.000449348
0.000504132
0.000519487
0.000493414
0.000512942
0.000449665
0.000504481
0.00052537
0.00049942
0.000518914
0.000455531
0.000510577
0.00052412
0.000498441
0.000518161
0.000454968
0.000512991
0.00051833
0.000492539
0.000512288
0.000449211
0.000507005
0.000517987
0.000492201
0.000511942
0.000448896
0.000506658
0.000516002
0.00049022
0.000509925
0.000447039
0.000504645
0.000515758
0.000489979
0.000509676
0.000446814
0.000504396
0.000514848
0.000489077
0.000508749
0.000445973
0.000503474
0.000514712
0.000488942
0.00050861
0.000445847
0.000503334
0.000514299
0.000488534
0.000508189
0.000445466
0.000502914
0.000514241
0.000488477
0.000508129
0.000445412
0.000502854
0.000514122
0.000488359
0.000508007
0.000445303
0.000502733
0.000514122
0.000488359
0.000508007
0.000445303
0.000502733
0.000514241
0.000488477
0.000508129
0.000445412
0.000502854
0.000514299
0.000488534
0.000508189
0.000445466
0.000502914
0.000514712
0.000488942
0.00050861
0.000445847
0.000503334
0.000514848
0.000489077
0.000508749
0.000445973
0.000503474
0.000515758
0.000489979
0.000509676
0.000446814
0.000504396
0.000516002
0.00049022
0.000509925
0.000447039
0.000504645
0.000517987
0.000492201
0.000511942
0.000448896
0.000506658
0.00051833
0.000492539
0.000512288
0.000449211
0.000507005
0.00052412
0.000498441
0.000518161
0.000454968
0.000512991
0.000523808
0.000498403
0.000518336
0.000455399
0.000515696
0.000518114
0.000492605
0.000512565
0.000449743
0.000509807
0.000517774
0.000492269
0.000512221
0.000449431
0.000509461
0.000515788
0.000490288
0.000510204
0.000447572
0.000507443
0.000515544
0.000490047
0.000509956
0.000447348
0.000507194
0.000514633
0.000489145
0.000509027
0.000446505
0.000506268
0.000514496
0.00048901
0.000508888
0.000446379
0.000506127
0.000514083
0.000488602
0.000508466
0.000445997
0.000505706
0.000514025
0.000488544
0.000508406
0.000445944
0.000505646
0.000513906
0.000488426
0.000508284
0.000445833
0.000505525
0.000513906
0.000488426
0.000508284
0.000445833
0.000505525
0.000514025
0.000488544
0.000508406
0.000445944
0.000505646
0.000514083
0.000488602
0.000508466
0.000445997
0.000505706
0.000514496
0.00048901
0.000508888
0.000446379
0.000506127
0.000514633
0.000489145
0.000509027
0.000446505
0.000506268
0.000515544
0.000490047
0.000509956
0.000447348
0.000507194
0.000515788
0.000490288
0.000510204
0.000447572
0.000507443
0.000517774
0.000492269
0.000512221
0.000449431
0.000509461
0.000518114
0.000492605
0.000512565
0.000449743
0.000509807
0.000523808
0.000498404
0.000518336
0.000455399
0.000515696
0.000523593
0.000498481
0.000518601
0.000456031
0.000517548
0.000517999
0.000492788
0.000512935
0.000450478
0.000511744
0.000517662
0.000492455
0.000512594
0.000450168
0.000511399
0.000515678
0.000490476
0.000510579
0.000448309
0.000509376
0.000515435
0.000490237
0.000510332
0.000448086
0.000509127
0.000514523
0.000489334
0.000509403
0.000447241
0.000508197
0.000514387
0.0004892
0.000509264
0.000447115
0.000508056
0.000513973
0.000488791
0.000508842
0.000446733
0.000507633
0.000513915
0.000488734
0.000508783
0.000446679
0.000507573
0.000513796
0.000488616
0.000508661
0.000446569
0.000507451
0.000513796
0.000488616
0.000508661
0.000446569
0.000507451
0.000513915
0.000488734
0.000508783
0.000446679
0.000507573
0.000513973
0.000488791
0.000508842
0.000446733
0.000507633
0.000514387
0.0004892
0.000509264
0.000447115
0.000508056
0.000514523
0.000489334
0.000509403
0.000447241
0.000508197
0.000515435
0.000490237
0.000510332
0.000448086
0.000509127
0.000515678
0.000490476
0.000510579
0.000448309
0.000509376
0.000517662
0.000492455
0.000512594
0.000450168
0.000511399
0.000517999
0.000492788
0.000512935
0.000450478
0.000511744
0.000523593
0.000498481
0.000518601
0.000456031
0.000517548
0.000523264
0.00049844
0.000518736
0.000456561
0.000516341
0.00051777
0.000492853
0.000513175
0.000451109
0.000510635
0.000517436
0.000492523
0.000512837
0.000450802
0.000510294
0.000515454
0.000490548
0.000510825
0.000448943
0.000508274
0.000515212
0.00049031
0.000510579
0.000448721
0.000508026
0.0005143
0.000489406
0.00050965
0.000447875
0.000507096
0.000514164
0.000489273
0.000509512
0.00044775
0.000506956
0.00051375
0.000488864
0.000509089
0.000447367
0.000506533
0.000513692
0.000488807
0.00050903
0.000447313
0.000506473
0.000513573
0.000488689
0.000508908
0.000447203
0.000506351
0.000513573
0.000488689
0.000508908
0.000447203
0.000506351
0.000513692
0.000488807
0.00050903
0.000447313
0.000506473
0.00051375
0.000488864
0.000509089
0.000447367
0.000506533
0.000514164
0.000489273
0.000509512
0.00044775
0.000506956
0.0005143
0.000489406
0.00050965
0.000447875
0.000507096
0.000515212
0.00049031
0.000510579
0.000448721
0.000508026
0.000515454
0.000490548
0.000510825
0.000448943
0.000508274
0.000517436
0.000492523
0.000512837
0.000450802
0.000510294
0.00051777
0.000492853
0.000513175
0.000451109
0.000510635
0.000523264
0.00049844
0.000518736
0.000456561
0.000516341
0.000522896
0.000498348
0.000518812
0.000456961
0.000514262
0.0005175
0.000492864
0.000513353
0.000451609
0.000508659
0.000517168
0.000492537
0.000513018
0.000451305
0.000508322
0.000515189
0.000490564
0.00051101
0.000449448
0.000506308
0.000514948
0.000490327
0.000510765
0.000449226
0.000506062
0.000514035
0.000489424
0.000509835
0.000448379
0.000505132
0.0005139
0.000489291
0.000509697
0.000448254
0.000504993
0.000513485
0.000488881
0.000509275
0.00044787
0.00050457
0.000513428
0.000488825
0.000509216
0.000447817
0.000504511
0.000513308
0.000488707
0.000509094
0.000447706
0.000504389
0.000513308
0.000488707
0.000509094
0.000447706
0.000504389
0.000513428
0.000488825
0.000509216
0.000447817
0.000504511
0.000513485
0.000488881
0.000509275
0.00044787
0.00050457
0.0005139
0.000489291
0.000509697
0.000448254
0.000504993
0.000514035
0.000489424
0.000509835
0.000448379
0.000505132
0.000514948
0.000490327
0.000510765
0.000449226
0.000506062
0.000515189
0.000490564
0.00051101
0.000449448
0.000506308
0.000517168
0.000492537
0.000513018
0.000451305
0.000508322
0.0005175
0.000492864
0.000513353
0.000451609
0.000508659
0.000522896
0.000498348
0.000518812
0.000456961
0.000514262
0.000522551
0.000498266
0.000518894
0.000457278
0.000512443
0.000517249
0.000492883
0.000513535
0.000452025
0.00050694
0.000516921
0.000492558
0.000513203
0.000451723
0.000506606
0.000514944
0.000490589
0.000511197
0.000449868
0.000504598
0.000514704
0.000490353
0.000510953
0.000449647
0.000504354
0.000513791
0.00048945
0.000510024
0.000448799
0.000503425
0.000513656
0.000489317
0.000509886
0.000448675
0.000503287
0.000513241
0.000488908
0.000509463
0.00044829
0.000502864
0.000513184
0.000488851
0.000509404
0.000448237
0.000502805
0.000513064
0.000488733
0.000509282
0.000448126
0.000502683
0.000513064
0.000488733
0.000509282
0.000448126
0.000502683
0.000513184
0.000488851
0.000509404
0.000448237
0.000502805
0.000513241
0.000488908
0.000509463
0.00044829
0.000502864
0.000513656
0.000489317
0.000509886
0.000448675
0.000503287
0.000513791
0.00048945
0.000510024
0.000448799
0.000503425
0.000514704
0.000490353
0.000510953
0.000449647
0.000504354
0.000514944
0.000490589
0.000511197
0.000449868
0.000504598
0.000516921
0.000492558
0.000513203
0.000451723
0.000506606
0.000517249
0.000492883
0.000513535
0.000452025
0.00050694
0.000522551
0.000498266
0.000518894
0.000457278
0.000512443
0.000522238
0.000498207
0.000518993
0.000457536
0.000510886
0.000517028
0.000492921
0.00051373
0.000452379
0.00050548
0.000516702
0.000492599
0.000513401
0.000452079
0.000505149
0.000514728
0.000490634
0.000511399
0.000450227
0.000503147
0.000514489
0.000490399
0.000511156
0.000450007
0.000502904
0.000513576
0.000489495
0.000510227
0.000449159
0.000501976
0.000513441
0.000489363
0.000510089
0.000449035
0.000501838
0.000513026
0.000488954
0.000509666
0.00044865
0.000501416
0.000512969
0.000488897
0.000509608
0.000448597
0.000501357
0.000512849
0.000488779
0.000509486
0.000448486
0.000501235
0.000512849
0.000488779
0.000509486
0.000448486
0.000501235
0.000512969
0.000488897
0.000509608
0.000448597
0.000501357
0.000513026
0.000488954
0.000509666
0.00044865
0.000501416
0.000513441
0.000489363
0.000510089
0.000449035
0.000501838
0.000513576
0.000489495
0.000510227
0.000449159
0.000501976
0.000514489
0.000490399
0.000511156
0.000450007
0.000502904
0.000514728
0.000490634
0.000511399
0.000450227
0.000503147
0.000516702
0.000492599
0.000513401
0.000452079
0.000505149
0.000517028
0.000492921
0.00051373
0.000452379
0.00050548
0.000522238
0.000498207
0.000518993
0.000457536
0.000510886
0.000521946
0.000498161
0.000519101
0.000457734
0.000509393
0.000516827
0.00049297
0.000513933
0.000452672
0.000504081
0.000516503
0.000492651
0.000513607
0.000452374
0.000503753
0.000514533
0.00049069
0.000511609
0.000450525
0.000501757
0.000514295
0.000490456
0.000511367
0.000450306
0.000501515
0.000513382
0.000489553
0.000510437
0.000449458
0.000500588
0.000513248
0.000489421
0.000510301
0.000449334
0.000500451
0.000512832
0.000489011
0.000509877
0.000448949
0.000500028
0.000512775
0.000488955
0.000509819
0.000448896
0.00049997
0.000512655
0.000488837
0.000509697
0.000448785
0.000499848
0.000512655
0.000488837
0.000509697
0.000448785
0.000499848
0.000512775
0.000488955
0.000509819
0.000448896
0.00049997
0.000512832
0.000489011
0.000509877
0.000448949
0.000500028
0.000513248
0.000489421
0.000510301
0.000449334
0.000500451
0.000513382
0.000489553
0.000510437
0.000449458
0.000500588
0.000514295
0.000490456
0.000511367
0.000450306
0.000501515
0.000514533
0.00049069
0.000511609
0.000450525
0.000501757
0.000516503
0.000492651
0.000513607
0.000452374
0.000503753
0.000516827
0.00049297
0.000513933
0.000452672
0.000504081
0.000521946
0.000498161
0.000519101
0.000457734
0.000509393
0.000521673
0.000498125
0.000519216
0.000457869
0.000507894
0.000516642
0.000493027
0.000514141
0.000452901
0.000502673
0.000516321
0.000492711
0.000513817
0.000452606
0.000502348
0.000514354
0.000490754
0.000511824
0.00045076
0.000500359
0.000514118
0.000490521
0.000511583
0.000450542
0.000500118
0.000513203
0.000489618
0.000510653
0.000449694
0.000499192
0.00051307
0.000489487
0.000510517
0.00044957
0.000499055
0.000512654
0.000489077
0.000510093
0.000449185
0.000498633
0.000512598
0.000489021
0.000510035
0.000449132
0.000498575
0.000512478
0.000488903
0.000509913
0.000449021
0.000498453
0.000512478
0.000488903
0.000509913
0.000449021
0.000498453
0.000512598
0.000489021
0.000510035
0.000449132
0.000498575
0.000512654
0.000489077
0.000510093
0.000449185
0.000498633
0.00051307
0.000489487
0.000510517
0.00044957
0.000499055
0.000513203
0.000489618
0.000510653
0.000449694
0.000499192
0.000514118
0.000490521
0.000511583
0.000450542
0.000500118
0.000514354
0.000490754
0.000511824
0.00045076
0.000500359
0.000516321
0.000492711
0.000513817
0.000452606
0.000502348
0.000516642
0.000493027
0.000514141
0.000452901
0.000502673
0.000521673
0.000498125
0.000519216
0.000457869
0.000507894
0.000521416
0.000498098
0.000519338
0.000457942
0.000506399
0.000516472
0.000493091
0.000514354
0.000453066
0.000501268
0.000516153
0.000492778
0.000514033
0.000452773
0.000500946
0.000514191
0.000490825
0.000512044
0.000450932
0.000498964
0.000513955
0.000490593
0.000511804
0.000450715
0.000498724
0.000513041
0.00048969
0.000510875
0.000449866
0.000497799
0.000512908
0.00048956
0.000510739
0.000449743
0.000497663
0.000512492
0.00048915
0.000510315
0.000449358
0.000497241
0.000512436
0.000489094
0.000510257
0.000449305
0.000497183
0.000512316
0.000488976
0.000510135
0.000449194
0.000497061
0.000512316
0.000488976
0.000510135
0.000449194
0.000497061
0.000512436
0.000489094
0.000510257
0.000449305
0.000497183
0.000512492
0.00048915
0.000510315
0.000449358
0.000497241
0.000512908
0.00048956
0.000510739
0.000449743
0.000497663
0.000513041
0.00048969
0.000510875
0.000449866
0.000497799
0.000513955
0.000490593
0.000511804
0.000450715
0.000498724
0.000514191
0.000490825
0.000512044
0.000450932
0.000498964
0.000516153
0.000492778
0.000514033
0.000452773
0.000500946
0.000516472
0.000493091
0.000514354
0.000453066
0.000501268
0.000521416
0.000498098
0.000519338
0.000457942
0.000506399
0.000521178
0.000498081
0.00051947
0.000457953
0.000504924
0.000516318
0.000493163
0.000514575
0.000453168
0.000499879
0.000516001
0.000492852
0.000514256
0.000452877
0.00049956
0.000514043
0.000490904
0.000512272
0.000451042
0.000497585
0.000513809
0.000490673
0.000512033
0.000450825
0.000497347
0.000512895
0.000489771
0.000511104
0.000449977
0.000496423
0.000512762
0.00048964
0.000510968
0.000449855
0.000496287
0.000512346
0.00048923
0.000510545
0.000449469
0.000495866
0.00051229
0.000489175
0.000510487
0.000449417
0.000495807
0.00051217
0.000489056
0.000510364
0.000449306
0.000495686
0.00051217
0.000489056
0.000510364
0.000449306
0.000495686
0.00051229
0.000489175
0.000510487
0.000449417
0.000495807
0.000512346
0.00048923
0.000510545
0.000449469
0.000495866
0.000512762
0.00048964
0.000510968
0.000449855
0.000496287
0.000512895
0.000489771
0.000511104
0.000449977
0.000496423
0.000513809
0.000490673
0.000512033
0.000450825
0.000497347
0.000514043
0.000490904
0.000512272
0.000451042
0.000497585
0.000516001
0.000492852
0.000514256
0.000452877
0.00049956
0.000516318
0.000493163
0.000514575
0.000453168
0.000499879
0.000521178
0.000498081
0.00051947
0.000457953
0.000504924
0.000520956
0.000498074
0.000519612
0.000457904
0.000503401
0.000516179
0.000493243
0.000514804
0.000453208
0.000498442
0.000515865
0.000492934
0.000514488
0.00045292
0.000498126
0.000513912
0.000490992
0.000512509
0.000451089
0.000496159
0.000513678
0.000490762
0.000512271
0.000450874
0.000495922
0.000512764
0.000489859
0.000511342
0.000450027
0.000494999
0.000512632
0.00048973
0.000511207
0.000449905
0.000494864
0.000512216
0.00048932
0.000510783
0.000449519
0.000494443
0.00051216
0.000489264
0.000510726
0.000449467
0.000494385
0.000512039
0.000489146
0.000510603
0.000449356
0.000494263
0.000512039
0.000489146
0.000510603
0.000449356
0.000494263
0.00051216
0.000489264
0.000510726
0.000449467
0.000494385
0.000512216
0.00048932
0.000510783
0.000449519
0.000494443
0.000512632
0.00048973
0.000511207
0.000449905
0.000494864
0.000512764
0.000489859
0.000511342
0.000450027
0.000494999
0.000513678
0.000490762
0.000512271
0.000450874
0.000495922
0.000513912
0.000490992
0.000512509
0.000451089
0.000496159
0.000515865
0.000492934
0.000514488
0.00045292
0.000498126
0.000516179
0.000493243
0.000514804
0.000453208
0.000498442
0.000520956
0.000498074
0.000519612
0.000457904
0.000503401
-1.62428e-05
1.57595e-05
2.8164e-06
6.9761e-07
2.51342e-07
1.80818e-07
1.65333e-07
1.62505e-07
1.6181e-07
1.61663e-07
1.61615e-07
1.61593e-07
1.61495e-07
1.61386e-07
1.60519e-07
1.59851e-07
1.53415e-07
1.50644e-07
1.11916e-07
1.07812e-07
-1.63111e-05
1.57198e-05
2.83097e-06
7.02653e-07
2.52587e-07
1.81125e-07
1.65388e-07
1.62504e-07
1.61793e-07
1.61643e-07
1.61594e-07
1.61571e-07
1.61471e-07
1.61359e-07
1.60478e-07
1.59803e-07
1.53295e-07
1.50518e-07
1.11616e-07
1.076e-07
-1.63049e-05
1.57099e-05
2.8279e-06
7.02239e-07
2.52506e-07
1.81115e-07
1.65385e-07
1.62504e-07
1.61793e-07
1.61643e-07
1.61593e-07
1.61571e-07
1.61471e-07
1.61359e-07
1.60477e-07
1.59802e-07
1.53293e-07
1.50516e-07
1.11613e-07
1.07598e-07
-1.62755e-05
1.56579e-05
2.81187e-06
7.00101e-07
2.52093e-07
1.81062e-07
1.65374e-07
1.62502e-07
1.61792e-07
1.61642e-07
1.61592e-07
1.61569e-07
1.61469e-07
1.61357e-07
1.60475e-07
1.59799e-07
1.53286e-07
1.50509e-07
1.11601e-07
1.07592e-07
-1.62705e-05
1.56503e-05
2.80922e-06
6.99686e-07
2.52e-07
1.81046e-07
1.6537e-07
1.62501e-07
1.61792e-07
1.61641e-07
1.61592e-07
1.61569e-07
1.61469e-07
1.61357e-07
1.60475e-07
1.59799e-07
1.53286e-07
1.50509e-07
1.11601e-07
1.07591e-07
-1.6254e-05
1.56254e-05
2.80071e-06
6.98412e-07
2.51721e-07
1.81001e-07
1.6536e-07
1.62499e-07
1.61791e-07
1.61641e-07
1.61592e-07
1.61569e-07
1.61469e-07
1.61357e-07
1.60474e-07
1.59798e-07
1.53286e-07
1.50509e-07
1.11601e-07
1.07591e-07
-1.62512e-05
1.56212e-05
2.79923e-06
6.98177e-07
2.51667e-07
1.80992e-07
1.65357e-07
1.62499e-07
1.61791e-07
1.61641e-07
1.61592e-07
1.61569e-07
1.61469e-07
1.61357e-07
1.60474e-07
1.59798e-07
1.53286e-07
1.50509e-07
1.11601e-07
1.07591e-07
-1.62437e-05
1.561e-05
2.79538e-06
6.97595e-07
2.51538e-07
1.80971e-07
1.65352e-07
1.62498e-07
1.61791e-07
1.61641e-07
1.61592e-07
1.61569e-07
1.61469e-07
1.61357e-07
1.60474e-07
1.59798e-07
1.53286e-07
1.50509e-07
1.11601e-07
1.07591e-07
-1.62425e-05
1.56082e-05
2.79475e-06
6.97497e-07
2.51515e-07
1.80967e-07
1.65351e-07
1.62497e-07
1.61791e-07
1.61641e-07
1.61592e-07
1.61569e-07
1.61469e-07
1.61357e-07
1.60474e-07
1.59798e-07
1.53286e-07
1.50509e-07
1.11601e-07
1.07591e-07
-1.62403e-05
1.5605e-05
2.79365e-06
6.9733e-07
2.51478e-07
1.80961e-07
1.6535e-07
1.62497e-07
1.6179e-07
1.61641e-07
1.61592e-07
1.61569e-07
1.61469e-07
1.61357e-07
1.60474e-07
1.59798e-07
1.53286e-07
1.50509e-07
1.11601e-07
1.07591e-07
-1.62403e-05
1.5605e-05
2.79365e-06
6.9733e-07
2.51478e-07
1.80961e-07
1.6535e-07
1.62497e-07
1.6179e-07
1.61641e-07
1.61592e-07
1.61569e-07
1.61469e-07
1.61357e-07
1.60474e-07
1.59798e-07
1.53286e-07
1.50509e-07
1.11601e-07
1.07591e-07
-1.62425e-05
1.56082e-05
2.79475e-06
6.97497e-07
2.51515e-07
1.80967e-07
1.65351e-07
1.62497e-07
1.61791e-07
1.61641e-07
1.61592e-07
1.61569e-07
1.61469e-07
1.61357e-07
1.60474e-07
1.59798e-07
1.53286e-07
1.50509e-07
1.11601e-07
1.07591e-07
-1.62437e-05
1.561e-05
2.79538e-06
6.97595e-07
2.51538e-07
1.80971e-07
1.65352e-07
1.62498e-07
1.61791e-07
1.61641e-07
1.61592e-07
1.61569e-07
1.61469e-07
1.61357e-07
1.60474e-07
1.59798e-07
1.53286e-07
1.50509e-07
1.11601e-07
1.07591e-07
-1.62512e-05
1.56212e-05
2.79923e-06
6.98177e-07
2.51667e-07
1.80992e-07
1.65357e-07
1.62499e-07
1.61791e-07
1.61641e-07
1.61592e-07
1.61569e-07
1.61469e-07
1.61357e-07
1.60474e-07
1.59798e-07
1.53286e-07
1.50509e-07
1.11601e-07
1.07591e-07
-1.6254e-05
1.56254e-05
2.80071e-06
6.98412e-07
2.51721e-07
1.81001e-07
1.6536e-07
1.62499e-07
1.61791e-07
1.61641e-07
1.61592e-07
1.61569e-07
1.61469e-07
1.61357e-07
1.60474e-07
1.59798e-07
1.53286e-07
1.50509e-07
1.11601e-07
1.07591e-07
-1.62705e-05
1.56503e-05
2.80922e-06
6.99686e-07
2.52e-07
1.81046e-07
1.6537e-07
1.62501e-07
1.61792e-07
1.61641e-07
1.61592e-07
1.61569e-07
1.61469e-07
1.61357e-07
1.60475e-07
1.59799e-07
1.53286e-07
1.50509e-07
1.11601e-07
1.07591e-07
-1.62755e-05
1.56579e-05
2.81187e-06
7.00101e-07
2.52093e-07
1.81062e-07
1.65374e-07
1.62502e-07
1.61792e-07
1.61642e-07
1.61592e-07
1.61569e-07
1.61469e-07
1.61357e-07
1.60475e-07
1.59799e-07
1.53286e-07
1.50509e-07
1.11601e-07
1.07592e-07
-1.63049e-05
1.57099e-05
2.8279e-06
7.02239e-07
2.52506e-07
1.81115e-07
1.65385e-07
1.62504e-07
1.61793e-07
1.61643e-07
1.61593e-07
1.61571e-07
1.61471e-07
1.61359e-07
1.60477e-07
1.59802e-07
1.53293e-07
1.50516e-07
1.11613e-07
1.07598e-07
-1.63111e-05
1.57198e-05
2.83097e-06
7.02653e-07
2.52587e-07
1.81125e-07
1.65388e-07
1.62504e-07
1.61793e-07
1.61643e-07
1.61594e-07
1.61571e-07
1.61471e-07
1.61359e-07
1.60478e-07
1.59803e-07
1.53295e-07
1.50518e-07
1.11616e-07
1.076e-07
-1.62428e-05
1.57595e-05
2.8164e-06
6.9761e-07
2.51342e-07
1.80818e-07
1.65333e-07
1.62505e-07
1.6181e-07
1.61663e-07
1.61615e-07
1.61593e-07
1.61495e-07
1.61386e-07
1.60519e-07
1.59851e-07
1.53415e-07
1.50644e-07
1.11916e-07
1.07812e-07
-1.58577e-05
1.59297e-05
2.84179e-06
7.03037e-07
2.52293e-07
1.81039e-07
1.65359e-07
1.62599e-07
1.61901e-07
1.61752e-07
1.61703e-07
1.61681e-07
1.61582e-07
1.6147e-07
1.60564e-07
1.59833e-07
1.53333e-07
1.50537e-07
1.11321e-07
1.07188e-07
-1.59211e-05
1.58899e-05
2.85652e-06
7.08137e-07
2.53553e-07
1.81349e-07
1.65415e-07
1.62597e-07
1.61885e-07
1.61732e-07
1.61682e-07
1.61659e-07
1.61557e-07
1.61444e-07
1.60522e-07
1.59784e-07
1.53212e-07
1.50409e-07
1.11017e-07
1.06972e-07
-1.59147e-05
1.58799e-05
2.85343e-06
7.07719e-07
2.53471e-07
1.81339e-07
1.65413e-07
1.62597e-07
1.61884e-07
1.61732e-07
1.61681e-07
1.61659e-07
1.61557e-07
1.61444e-07
1.60521e-07
1.59783e-07
1.5321e-07
1.50407e-07
1.11014e-07
1.0697e-07
-1.58845e-05
1.58273e-05