/*--------------------------------*- C++ -*----------------------------------*\
  =========                 |
  \\      /  F ield         | OpenFOAM: The Open Source CFD Toolbox
   \\    /   O peration     | Website:  https://openfoam.org
    \\  /    A nd           | Version:  8
     \\/     M anipulation  |
\*---------------------------------------------------------------------------*/
FoamFile
{
    version     2.0;
    format      ascii;
    class       volScalarField;
    location    "0.5";
    object      p;
}
// * * * * * * * * * * * * * * * * * * * * * * * * * * * * * * * * * * * * * //

dimensions      [0 2 -2 0 0 0 0];

internalField   nonuniform List<scalar> 
180000
(
0.00151733
0.00142703
0.00150233
0.00122383
0.00140075
0.0015096
0.00141841
0.00149439
0.00121551
0.00139236
0.00150951
0.00141831
0.00149431
0.00121542
0.00139228
0.00150918
0.0014179
0.00149402
0.00121504
0.001392
0.00150919
0.0014179
0.00149403
0.00121504
0.00139201
0.00150919
0.0014179
0.00149404
0.00121504
0.00139202
0.00150921
0.00141792
0.00149405
0.00121505
0.00139204
0.00150923
0.00141793
0.00149407
0.00121507
0.00139206
0.00150923
0.00141794
0.00149408
0.00121507
0.00139206
0.00150924
0.00141795
0.00149409
0.00121508
0.00139207
0.00150924
0.00141795
0.00149409
0.00121508
0.00139207
0.00150923
0.00141794
0.00149408
0.00121507
0.00139206
0.00150923
0.00141793
0.00149407
0.00121507
0.00139206
0.00150921
0.00141792
0.00149405
0.00121505
0.00139204
0.00150919
0.0014179
0.00149404
0.00121504
0.00139202
0.00150919
0.0014179
0.00149403
0.00121504
0.00139201
0.00150918
0.0014179
0.00149402
0.00121504
0.001392
0.00150951
0.00141831
0.00149431
0.00121542
0.00139228
0.0015096
0.00141841
0.00149439
0.00121551
0.00139236
0.00151733
0.00142703
0.00150233
0.00122383
0.00140075
0.000761789
0.000794692
0.000768851
0.000812773
0.000802319
0.000765298
0.000796884
0.000772162
0.000812144
0.000804006
0.000765337
0.000796906
0.000772202
0.000812138
0.000804023
0.000765478
0.000796973
0.000772342
0.0008121
0.00080407
0.000765475
0.000796972
0.000772339
0.0008121
0.000804068
0.000765472
0.000796971
0.000772333
0.000812099
0.000804064
0.000765466
0.000796968
0.000772327
0.0008121
0.000804061
0.000765458
0.000796963
0.000772319
0.000812101
0.000804057
0.000765454
0.000796962
0.000772315
0.000812101
0.000804056
0.000765451
0.00079696
0.000772312
0.000812102
0.000804055
0.000765451
0.00079696
0.000772312
0.000812102
0.000804055
0.000765454
0.000796962
0.000772315
0.000812101
0.000804056
0.000765458
0.000796963
0.000772319
0.000812101
0.000804057
0.000765466
0.000796968
0.000772327
0.0008121
0.000804061
0.000765472
0.000796971
0.000772333
0.000812099
0.000804064
0.000765475
0.000796972
0.000772339
0.0008121
0.000804068
0.000765478
0.000796973
0.000772342
0.0008121
0.00080407
0.000765337
0.000796906
0.000772202
0.000812138
0.000804023
0.000765298
0.000796884
0.000772162
0.000812144
0.000804006
0.000761789
0.000794692
0.000768851
0.000812773
0.000802319
0.000647989
0.000631925
0.000645636
0.000607484
0.000633154
0.000646393
0.000630699
0.000644097
0.00060637
0.000632044
0.000646378
0.000630683
0.000644088
0.00060636
0.000632035
0.000646302
0.000630598
0.000644041
0.000606294
0.000631988
0.000646302
0.000630598
0.000644043
0.000606294
0.000631989
0.000646303
0.000630597
0.000644044
0.000606293
0.00063199
0.000646305
0.000630599
0.000644046
0.000606294
0.000631991
0.000646309
0.000630601
0.00064405
0.000606296
0.000631994
0.00064631
0.000630603
0.000644051
0.000606297
0.000631995
0.000646312
0.000630604
0.000644052
0.000606298
0.000631996
0.000646312
0.000630604
0.000644052
0.000606298
0.000631996
0.00064631
0.000630603
0.000644051
0.000606297
0.000631995
0.000646309
0.000630601
0.00064405
0.000606296
0.000631994
0.000646305
0.000630599
0.000644046
0.000606294
0.000631991
0.000646303
0.000630597
0.000644044
0.000606293
0.00063199
0.000646302
0.000630598
0.000644043
0.000606294
0.000631989
0.000646302
0.000630598
0.000644041
0.000606294
0.000631988
0.000646378
0.000630683
0.000644088
0.00060636
0.000632035
0.000646393
0.000630699
0.000644097
0.00060637
0.000632044
0.000647989
0.000631925
0.000645636
0.000607484
0.000633154
0.000711584
0.000684081
0.00070825
0.000617438
0.000683347
0.000709376
0.000681447
0.000705955
0.000614656
0.0006808
0.000709353
0.000681414
0.000705936
0.000614627
0.000680776
0.000709243
0.000681259
0.000705852
0.000614482
0.000680676
0.000709244
0.00068126
0.000705854
0.000614482
0.000680678
0.000709245
0.000681259
0.000705856
0.00061448
0.000680682
0.000709248
0.000681263
0.00070586
0.000614483
0.000680686
0.000709254
0.000681269
0.000705865
0.000614489
0.000680692
0.000709256
0.000681271
0.000705867
0.000614491
0.000680694
0.000709258
0.000681274
0.000705869
0.000614492
0.000680696
0.000709258
0.000681274
0.000705869
0.000614492
0.000680696
0.000709256
0.000681271
0.000705867
0.000614491
0.000680694
0.000709254
0.000681269
0.000705865
0.000614489
0.000680692
0.000709248
0.000681263
0.00070586
0.000614483
0.000680686
0.000709245
0.000681259
0.000705856
0.00061448
0.000680682
0.000709244
0.00068126
0.000705854
0.000614482
0.000680678
0.000709243
0.000681259
0.000705852
0.000614482
0.000680676
0.000709353
0.000681414
0.000705936
0.000614627
0.000680776
0.000709376
0.000681447
0.000705955
0.000614656
0.0006808
0.000711584
0.000684081
0.00070825
0.000617438
0.000683347
0.000735425
0.000713021
0.000733533
0.000648007
0.000715625
0.000733823
0.000710753
0.000731809
0.000645129
0.00071341
0.000733806
0.000710723
0.000731796
0.000645098
0.000713388
0.000733716
0.00071058
0.000731726
0.000644942
0.000713293
0.000733716
0.00071058
0.000731727
0.000644942
0.000713294
0.000733716
0.000710579
0.000731728
0.00064494
0.000713297
0.000733719
0.000710582
0.000731731
0.000644944
0.000713301
0.000733723
0.000710587
0.000731735
0.000644949
0.000713306
0.000733724
0.00071059
0.000731737
0.000644951
0.000713308
0.000733726
0.000710592
0.000731738
0.000644953
0.00071331
0.000733726
0.000710592
0.000731738
0.000644953
0.00071331
0.000733724
0.00071059
0.000731737
0.000644951
0.000713308
0.000733723
0.000710587
0.000731735
0.000644949
0.000713306
0.000733719
0.000710582
0.000731731
0.000644944
0.000713301
0.000733716
0.000710579
0.000731728
0.00064494
0.000713297
0.000733716
0.00071058
0.000731727
0.000644942
0.000713294
0.000733716
0.00071058
0.000731726
0.000644942
0.000713293
0.000733806
0.000710723
0.000731796
0.000645098
0.000713388
0.000733823
0.000710753
0.000731809
0.000645129
0.00071341
0.000735425
0.000713021
0.000733533
0.000648007
0.000715625
0.000730526
0.000711654
0.000729514
0.000654872
0.00071876
0.000729216
0.000709777
0.000728111
0.000652302
0.000716961
0.000729201
0.000709753
0.0007281
0.000652274
0.000716943
0.000729119
0.000709623
0.000728036
0.000652127
0.000716856
0.000729119
0.000709623
0.000728037
0.000652127
0.000716857
0.000729118
0.000709621
0.000728038
0.000652124
0.000716859
0.00072912
0.000709624
0.00072804
0.000652127
0.000716862
0.000729124
0.000709628
0.000728044
0.000652133
0.000716867
0.000729125
0.00070963
0.000728045
0.000652135
0.000716868
0.000729127
0.000709632
0.000728046
0.000652137
0.00071687
0.000729127
0.000709632
0.000728046
0.000652137
0.00071687
0.000729125
0.00070963
0.000728045
0.000652135
0.000716868
0.000729124
0.000709628
0.000728044
0.000652133
0.000716867
0.00072912
0.000709624
0.00072804
0.000652127
0.000716862
0.000729118
0.000709621
0.000728038
0.000652124
0.000716859
0.000729119
0.000709623
0.000728037
0.000652127
0.000716857
0.000729119
0.000709623
0.000728036
0.000652127
0.000716856
0.000729201
0.000709753
0.0007281
0.000652274
0.000716943
0.000729216
0.000709777
0.000728111
0.000652302
0.000716961
0.000730526
0.000711654
0.000729514
0.000654872
0.00071876
0.000724004
0.000705188
0.000723288
0.000651156
0.000716394
0.000722687
0.000703387
0.000721898
0.000648751
0.000714719
0.000722673
0.000703364
0.000721886
0.000648725
0.000714702
0.000722586
0.000703233
0.000721818
0.00064858
0.000714614
0.000722586
0.000703233
0.000721819
0.00064858
0.000714615
0.000722585
0.000703231
0.000721819
0.000648578
0.000714616
0.000722587
0.000703233
0.000721822
0.00064858
0.000714619
0.000722591
0.000703238
0.000721826
0.000648585
0.000714624
0.000722592
0.00070324
0.000721827
0.000648587
0.000714626
0.000722594
0.000703242
0.000721828
0.000648589
0.000714627
0.000722594
0.000703242
0.000721828
0.000648589
0.000714627
0.000722592
0.00070324
0.000721827
0.000648587
0.000714626
0.000722591
0.000703238
0.000721826
0.000648585
0.000714624
0.000722587
0.000703233
0.000721822
0.00064858
0.000714619
0.000722585
0.000703231
0.000721819
0.000648578
0.000714616
0.000722586
0.000703233
0.000721819
0.00064858
0.000714615
0.000722586
0.000703233
0.000721818
0.00064858
0.000714614
0.000722673
0.000703364
0.000721886
0.000648725
0.000714702
0.000722687
0.000703387
0.000721898
0.000648751
0.000714719
0.000724004
0.000705188
0.000723288
0.000651156
0.000716394
0.000721303
0.000701945
0.000720827
0.000648149
0.000716844
0.000719957
0.000700135
0.000719414
0.000645794
0.000715201
0.000719942
0.000700111
0.000719402
0.000645769
0.000715184
0.00071985
0.000699977
0.000719328
0.000645621
0.000715093
0.00071985
0.000699977
0.000719329
0.000645621
0.000715094
0.000719848
0.000699974
0.000719329
0.000645618
0.000715095
0.000719851
0.000699977
0.000719331
0.000645621
0.000715098
0.000719855
0.000699981
0.000719336
0.000645626
0.000715103
0.000719856
0.000699983
0.000719337
0.000645628
0.000715104
0.000719858
0.000699985
0.000719338
0.00064563
0.000715106
0.000719858
0.000699985
0.000719338
0.00064563
0.000715106
0.000719856
0.000699983
0.000719337
0.000645628
0.000715104
0.000719855
0.000699981
0.000719336
0.000645626
0.000715103
0.000719851
0.000699977
0.000719331
0.000645621
0.000715098
0.000719848
0.000699974
0.000719329
0.000645618
0.000715095
0.00071985
0.000699977
0.000719329
0.000645621
0.000715094
0.00071985
0.000699977
0.000719328
0.000645621
0.000715093
0.000719942
0.000700111
0.000719402
0.000645769
0.000715184
0.000719957
0.000700135
0.000719414
0.000645794
0.000715201
0.000721303
0.000701945
0.000720827
0.000648149
0.000716844
0.000720032
0.000700547
0.000719876
0.00064724
0.00071884
0.000718702
0.000698757
0.000718482
0.000644924
0.000717242
0.000718686
0.000698733
0.000718469
0.000644899
0.000717225
0.000718591
0.000698597
0.000718391
0.000644748
0.000717131
0.00071859
0.000698596
0.000718392
0.000644748
0.000717132
0.000718589
0.000698593
0.000718392
0.000644745
0.000717133
0.000718591
0.000698596
0.000718394
0.000644748
0.000717136
0.000718595
0.000698601
0.000718398
0.000644753
0.000717141
0.000718597
0.000698603
0.0007184
0.000644755
0.000717142
0.000718598
0.000698605
0.000718401
0.000644757
0.000717144
0.000718598
0.000698605
0.000718401
0.000644757
0.000717144
0.000718597
0.000698603
0.0007184
0.000644755
0.000717142
0.000718595
0.000698601
0.000718398
0.000644753
0.000717141
0.000718591
0.000698596
0.000718394
0.000644748
0.000717136
0.000718589
0.000698593
0.000718392
0.000644745
0.000717133
0.00071859
0.000698596
0.000718392
0.000644748
0.000717132
0.000718591
0.000698597
0.000718391
0.000644748
0.000717131
0.000718686
0.000698733
0.000718469
0.000644899
0.000717225
0.000718702
0.000698757
0.000718482
0.000644924
0.000717242
0.000720032
0.000700547
0.000719876
0.00064724
0.00071884
0.000718594
0.000699211
0.000718784
0.000646998
0.000720657
0.000717294
0.000697463
0.000717426
0.000644734
0.00071911
0.000717278
0.00069744
0.000717414
0.00064471
0.000719094
0.000717181
0.000697302
0.000717333
0.000644558
0.000718997
0.00071718
0.000697301
0.000717334
0.000644557
0.000718998
0.000717178
0.000697298
0.000717333
0.000644554
0.000718999
0.00071718
0.0006973
0.000717335
0.000644557
0.000719001
0.000717185
0.000697305
0.00071734
0.000644562
0.000719006
0.000717186
0.000697307
0.000717341
0.000644564
0.000719008
0.000717188
0.000697309
0.000717343
0.000644566
0.00071901
0.000717188
0.000697309
0.000717343
0.000644566
0.00071901
0.000717186
0.000697307
0.000717341
0.000644564
0.000719008
0.000717185
0.000697305
0.00071734
0.000644562
0.000719006
0.00071718
0.0006973
0.000717335
0.000644557
0.000719001
0.000717178
0.000697298
0.000717333
0.000644554
0.000718999
0.00071718
0.000697301
0.000717334
0.000644557
0.000718998
0.000717181
0.000697302
0.000717333
0.000644558
0.000718997
0.000717278
0.00069744
0.000717414
0.00064471
0.000719094
0.000717294
0.000697463
0.000717426
0.000644734
0.00071911
0.000718594
0.000699211
0.000718784
0.000646998
0.000720657
0.000716884
0.000697607
0.000717409
0.00064669
0.000721944
0.000715612
0.000695901
0.000716086
0.000644484
0.000720428
0.000715596
0.000695878
0.000716073
0.00064446
0.000720412
0.000715496
0.000695739
0.000715989
0.000644306
0.000720312
0.000715496
0.000695739
0.00071599
0.000644306
0.000720313
0.000715494
0.000695735
0.000715989
0.000644303
0.000720314
0.000715496
0.000695738
0.000715991
0.000644305
0.000720316
0.0007155
0.000695742
0.000715996
0.000644311
0.000720321
0.000715502
0.000695744
0.000715997
0.000644313
0.000720323
0.000715503
0.000695746
0.000715999
0.000644315
0.000720325
0.000715503
0.000695746
0.000715999
0.000644315
0.000720325
0.000715502
0.000695744
0.000715997
0.000644313
0.000720323
0.0007155
0.000695742
0.000715996
0.000644311
0.000720321
0.000715496
0.000695738
0.000715991
0.000644305
0.000720316
0.000715494
0.000695735
0.000715989
0.000644303
0.000720314
0.000715496
0.000695739
0.00071599
0.000644306
0.000720313
0.000715496
0.000695739
0.000715989
0.000644306
0.000720312
0.000715596
0.000695878
0.000716073
0.00064446
0.000720412
0.000715612
0.000695901
0.000716086
0.000644484
0.000720428
0.000716884
0.000697607
0.000717409
0.00064669
0.000721944
0.000715129
0.000695924
0.000715974
0.000646231
0.00071953
0.000713881
0.000694256
0.00071468
0.00064408
0.000718036
0.000713865
0.000694234
0.000714668
0.000644056
0.00071802
0.000713763
0.000694094
0.000714581
0.000643902
0.000717919
0.000713763
0.000694093
0.000714582
0.000643902
0.00071792
0.00071376
0.000694089
0.00071458
0.000643898
0.00071792
0.000713762
0.000694092
0.000714583
0.000643901
0.000717923
0.000713766
0.000694097
0.000714587
0.000643906
0.000717928
0.000713768
0.000694098
0.000714589
0.000643908
0.000717929
0.00071377
0.0006941
0.00071459
0.00064391
0.000717931
0.00071377
0.0006941
0.00071459
0.00064391
0.000717931
0.000713768
0.000694098
0.000714589
0.000643908
0.000717929
0.000713766
0.000694097
0.000714587
0.000643906
0.000717928
0.000713762
0.000694092
0.000714583
0.000643901
0.000717923
0.00071376
0.000694089
0.00071458
0.000643898
0.00071792
0.000713763
0.000694093
0.000714582
0.000643902
0.00071792
0.000713763
0.000694094
0.000714581
0.000643902
0.000717919
0.000713865
0.000694234
0.000714668
0.000644056
0.00071802
0.000713881
0.000694256
0.00071468
0.00064408
0.000718036
0.000715129
0.000695924
0.000715974
0.000646231
0.00071953
0.000713415
0.000694275
0.00071457
0.000645629
0.000716062
0.00071219
0.000692645
0.000713304
0.000643532
0.000714588
0.000712175
0.000692623
0.000713292
0.000643509
0.000714572
0.00071207
0.000692481
0.000713203
0.000643353
0.000714469
0.00071207
0.00069248
0.000713203
0.000643353
0.00071447
0.000712067
0.000692476
0.000713202
0.000643349
0.00071447
0.000712069
0.000692479
0.000713204
0.000643352
0.000714473
0.000712073
0.000692484
0.000713209
0.000643357
0.000714478
0.000712075
0.000692486
0.00071321
0.000643359
0.00071448
0.000712076
0.000692488
0.000713212
0.000643361
0.000714482
0.000712076
0.000692488
0.000713212
0.000643361
0.000714482
0.000712075
0.000692486
0.00071321
0.000643359
0.00071448
0.000712073
0.000692484
0.000713209
0.000643357
0.000714478
0.000712069
0.000692479
0.000713204
0.000643352
0.000714473
0.000712067
0.000692476
0.000713202
0.000643349
0.00071447
0.00071207
0.00069248
0.000713203
0.000643353
0.00071447
0.00071207
0.000692481
0.000713203
0.000643353
0.000714469
0.000712175
0.000692623
0.000713292
0.000643509
0.000714572
0.00071219
0.000692645
0.000713304
0.000643532
0.000714588
0.000713415
0.000694275
0.00071457
0.000645629
0.000716062
0.000711732
0.000692665
0.000713189
0.000644909
0.000712873
0.00071053
0.000691071
0.000711952
0.000642864
0.000711422
0.000710514
0.000691049
0.000711939
0.000642841
0.000711406
0.000710408
0.000690907
0.000711848
0.000642685
0.000711302
0.000710408
0.000690906
0.000711848
0.000642685
0.000711303
0.000710404
0.000690902
0.000711847
0.000642681
0.000711303
0.000710407
0.000690904
0.000711849
0.000642684
0.000711305
0.000710411
0.000690909
0.000711854
0.000642689
0.000711311
0.000710413
0.000690911
0.000711855
0.000642691
0.000711312
0.000710414
0.000690913
0.000711857
0.000642693
0.000711314
0.000710414
0.000690913
0.000711857
0.000642693
0.000711314
0.000710413
0.000690911
0.000711855
0.000642691
0.000711312
0.000710411
0.000690909
0.000711854
0.000642689
0.000711311
0.000710407
0.000690904
0.000711849
0.000642684
0.000711305
0.000710404
0.000690902
0.000711847
0.000642681
0.000711303
0.000710408
0.000690906
0.000711848
0.000642685
0.000711303
0.000710408
0.000690907
0.000711848
0.000642685
0.000711302
0.000710514
0.000691049
0.000711939
0.000642841
0.000711406
0.00071053
0.000691071
0.000711952
0.000642864
0.000711422
0.000711732
0.000692665
0.000713189
0.000644909
0.000712873
0.000710062
0.000691076
0.000711815
0.000644081
0.000709955
0.000708883
0.000689517
0.000710606
0.000642086
0.000708527
0.000708868
0.000689496
0.000710594
0.000642064
0.000708511
0.00070876
0.000689353
0.0007105
0.000641908
0.000708406
0.000708759
0.000689352
0.0007105
0.000641907
0.000708407
0.000708755
0.000689347
0.000710499
0.000641903
0.000708406
0.000708758
0.00068935
0.000710501
0.000641906
0.000708409
0.000708762
0.000689355
0.000710506
0.000641911
0.000708415
0.000708764
0.000689356
0.000710507
0.000641913
0.000708416
0.000708765
0.000689358
0.000710509
0.000641915
0.000708418
0.000708765
0.000689358
0.000710509
0.000641915
0.000708418
0.000708764
0.000689356
0.000710507
0.000641913
0.000708416
0.000708762
0.000689355
0.000710506
0.000641911
0.000708415
0.000708758
0.00068935
0.000710501
0.000641906
0.000708409
0.000708756
0.000689347
0.000710499
0.000641903
0.000708406
0.000708759
0.000689352
0.0007105
0.000641907
0.000708407
0.00070876
0.000689353
0.0007105
0.000641908
0.000708406
0.000708868
0.000689496
0.000710594
0.000642064
0.000708511
0.000708883
0.000689517
0.000710606
0.000642086
0.000708527
0.000710062
0.000691076
0.000711815
0.000644081
0.000709955
0.000708401
0.000689499
0.000710446
0.000643146
0.000707085
0.000707245
0.000687976
0.000709265
0.000641202
0.00070568
0.00070723
0.000687955
0.000709252
0.000641181
0.000705665
0.00070712
0.000687811
0.000709156
0.000641023
0.000705559
0.000707119
0.00068781
0.000709157
0.000641023
0.00070556
0.000707116
0.000687805
0.000709155
0.000641019
0.000705559
0.000707118
0.000687808
0.000709157
0.000641021
0.000705562
0.000707123
0.000687813
0.000709162
0.000641027
0.000705567
0.000707124
0.000687815
0.000709163
0.000641029
0.000705569
0.000707126
0.000687817
0.000709165
0.000641031
0.000705571
0.000707126
0.000687817
0.000709165
0.000641031
0.000705571
0.000707124
0.000687815
0.000709163
0.000641029
0.000705569
0.000707123
0.000687813
0.000709162
0.000641027
0.000705567
0.000707118
0.000687808
0.000709157
0.000641021
0.000705562
0.000707116
0.000687805
0.000709155
0.000641019
0.000705559
0.000707119
0.00068781
0.000709157
0.000641023
0.00070556
0.00070712
0.000687811
0.000709156
0.000641023
0.000705559
0.00070723
0.000687955
0.000709252
0.000641181
0.000705665
0.000707245
0.000687976
0.000709265
0.000641202
0.00070568
0.000708401
0.000689499
0.000710446
0.000643146
0.000707085
0.000706751
0.000687937
0.000709083
0.000642109
0.000704196
0.000705618
0.000686448
0.000707929
0.000640213
0.000702814
0.000705602
0.000686428
0.000707916
0.000640192
0.000702799
0.000705491
0.000686283
0.000707819
0.000640035
0.000702693
0.000705491
0.000686282
0.000707819
0.000640035
0.000702694
0.000705487
0.000686277
0.000707817
0.00064003
0.000702693
0.000705489
0.00068628
0.000707819
0.000640033
0.000702696
0.000705494
0.000686285
0.000707824
0.000640038
0.000702701
0.000705495
0.000686287
0.000707826
0.00064004
0.000702703
0.000705497
0.000686289
0.000707828
0.000640042
0.000702705
0.000705497
0.000686289
0.000707828
0.000640042
0.000702705
0.000705495
0.000686287
0.000707826
0.00064004
0.000702703
0.000705494
0.000686285
0.000707824
0.000640038
0.000702701
0.000705489
0.00068628
0.000707819
0.000640033
0.000702696
0.000705487
0.000686277
0.000707817
0.00064003
0.000702693
0.000705491
0.000686282
0.000707819
0.000640035
0.000702694
0.000705491
0.000686283
0.000707819
0.000640035
0.000702693
0.000705602
0.000686428
0.000707916
0.000640192
0.000702799
0.000705618
0.000686448
0.000707929
0.000640213
0.000702814
0.000706751
0.000687937
0.000709083
0.000642109
0.000704196
0.000705113
0.000686388
0.000707728
0.000640972
0.00070131
0.000704002
0.000684934
0.000706601
0.000639124
0.000699952
0.000703987
0.000684914
0.000706588
0.000639103
0.000699937
0.000703874
0.000684769
0.000706489
0.000638946
0.000699831
0.000703873
0.000684768
0.00070649
0.000638946
0.000699831
0.000703869
0.000684763
0.000706487
0.000638941
0.00069983
0.000703872
0.000684765
0.00070649
0.000638944
0.000699833
0.000703876
0.00068477
0.000706495
0.000638949
0.000699839
0.000703878
0.000684772
0.000706496
0.000638951
0.000699841
0.00070388
0.000684774
0.000706498
0.000638953
0.000699843
0.00070388
0.000684774
0.000706498
0.000638953
0.000699843
0.000703878
0.000684772
0.000706496
0.000638951
0.000699841
0.000703876
0.00068477
0.000706495
0.000638949
0.000699839
0.000703872
0.000684765
0.00070649
0.000638944
0.000699833
0.000703869
0.000684763
0.000706487
0.000638941
0.00069983
0.000703873
0.000684768
0.00070649
0.000638946
0.000699831
0.000703874
0.000684769
0.000706489
0.000638946
0.000699831
0.000703987
0.000684914
0.000706588
0.000639103
0.000699937
0.000704002
0.000684934
0.000706601
0.000639124
0.000699952
0.000705113
0.000686388
0.000707728
0.000640972
0.00070131
0.000703486
0.000684855
0.000706383
0.000639737
0.000698452
0.000702397
0.000683434
0.000705281
0.000637936
0.000697116
0.000702382
0.000683415
0.000705269
0.000637916
0.000697101
0.000702268
0.000683269
0.000705169
0.000637759
0.000696995
0.000702267
0.000683268
0.000705169
0.000637759
0.000696995
0.000702263
0.000683263
0.000705167
0.000637754
0.000696995
0.000702266
0.000683265
0.000705169
0.000637757
0.000696997
0.00070227
0.00068327
0.000705174
0.000637762
0.000697003
0.000702272
0.000683272
0.000705176
0.000637764
0.000697005
0.000702274
0.000683274
0.000705178
0.000637766
0.000697007
0.000702274
0.000683274
0.000705178
0.000637766
0.000697007
0.000702272
0.000683272
0.000705176
0.000637764
0.000697005
0.00070227
0.00068327
0.000705174
0.000637762
0.000697003
0.000702266
0.000683265
0.000705169
0.000637757
0.000696997
0.000702263
0.000683263
0.000705167
0.000637754
0.000696995
0.000702267
0.000683268
0.000705169
0.000637759
0.000696995
0.000702268
0.000683269
0.000705169
0.000637759
0.000696995
0.000702382
0.000683415
0.000705269
0.000637916
0.000697101
0.000702397
0.000683434
0.000705281
0.000637936
0.000697116
0.000703486
0.000684855
0.000706383
0.000639737
0.000698452
0.000701871
0.000683335
0.000705048
0.000638409
0.000695449
0.000700803
0.000681947
0.000703972
0.000636654
0.000694136
0.000700788
0.000681928
0.00070396
0.000636634
0.000694122
0.000700674
0.000681783
0.000703859
0.000636477
0.000694016
0.000700673
0.000681781
0.000703859
0.000636477
0.000694016
0.000700668
0.000681776
0.000703856
0.000636472
0.000694015
0.000700671
0.000681778
0.000703859
0.000636475
0.000694018
0.000700675
0.000681783
0.000703864
0.000636481
0.000694024
0.000700677
0.000681785
0.000703865
0.000636483
0.000694026
0.000700679
0.000681787
0.000703867
0.000636485
0.000694028
0.000700679
0.000681787
0.000703867
0.000636485
0.000694028
0.000700677
0.000681785
0.000703865
0.000636483
0.000694026
0.000700675
0.000681783
0.000703864
0.000636481
0.000694024
0.000700671
0.000681778
0.000703859
0.000636475
0.000694018
0.000700668
0.000681776
0.000703856
0.000636472
0.000694015
0.000700673
0.000681781
0.000703859
0.000636477
0.000694016
0.000700674
0.000681783
0.000703859
0.000636477
0.000694016
0.000700788
0.000681928
0.00070396
0.000636634
0.000694122
0.000700803
0.000681947
0.000703972
0.000636654
0.000694136
0.000701871
0.000683335
0.000705048
0.000638409
0.000695449
-1.48305e-05
2.1211e-05
3.99454e-06
7.57977e-07
2.43933e-07
1.75587e-07
1.63521e-07
1.61983e-07
1.61662e-07
1.61622e-07
1.6161e-07
1.61604e-07
1.61556e-07
1.61486e-07
1.60841e-07
1.60276e-07
1.54385e-07
1.51638e-07
1.13037e-07
1.08595e-07
-1.51081e-05
2.13144e-05
4.05486e-06
7.66375e-07
2.45369e-07
1.75783e-07
1.63534e-07
1.61967e-07
1.61641e-07
1.616e-07
1.61588e-07
1.61582e-07
1.61533e-07
1.61462e-07
1.6081e-07
1.60239e-07
1.54294e-07
1.51539e-07
1.1277e-07
1.08413e-07
-1.51123e-05
2.13154e-05
4.05569e-06
7.6652e-07
2.45401e-07
1.75788e-07
1.63535e-07
1.61967e-07
1.61641e-07
1.616e-07
1.61588e-07
1.61582e-07
1.61533e-07
1.61462e-07
1.60809e-07
1.60239e-07
1.54293e-07
1.51538e-07
1.12767e-07
1.08411e-07
-1.51278e-05
2.13175e-05
4.05765e-06
7.66878e-07
2.45476e-07
1.758e-07
1.63536e-07
1.61966e-07
1.6164e-07
1.61599e-07
1.61587e-07
1.61581e-07
1.61531e-07
1.61461e-07
1.60808e-07
1.60237e-07
1.54288e-07
1.51534e-07
1.12759e-07
1.08407e-07
-1.5128e-05
2.13176e-05
4.05772e-06
7.66891e-07
2.45479e-07
1.758e-07
1.63536e-07
1.61966e-07
1.6164e-07
1.61599e-07
1.61587e-07
1.61581e-07
1.61531e-07
1.61461e-07
1.60807e-07
1.60237e-07
1.54288e-07
1.51534e-07
1.12758e-07
1.08406e-07
-1.51285e-05
2.13177e-05
4.05781e-06
7.66908e-07
2.45483e-07
1.75801e-07
1.63536e-07
1.61966e-07
1.6164e-07
1.61599e-07
1.61587e-07
1.6158e-07
1.61531e-07
1.61461e-07
1.60807e-07
1.60237e-07
1.54288e-07
1.51533e-07
1.12758e-07
1.08406e-07
-1.51283e-05
2.13178e-05
4.05783e-06
7.6691e-07
2.45483e-07
1.75801e-07
1.63536e-07
1.61966e-07
1.6164e-07
1.61599e-07
1.61587e-07
1.6158e-07
1.61531e-07
1.61461e-07
1.60807e-07
1.60237e-07
1.54288e-07
1.51533e-07
1.12758e-07
1.08406e-07
-1.51281e-05
2.13179e-05
4.05786e-06
7.66912e-07
2.45484e-07
1.75801e-07
1.63536e-07
1.61966e-07
1.6164e-07
1.61599e-07
1.61587e-07
1.6158e-07
1.61531e-07
1.61461e-07
1.60807e-07
1.60237e-07
1.54288e-07
1.51533e-07
1.12758e-07
1.08406e-07
-1.5128e-05
2.13179e-05
4.05787e-06
7.66913e-07
2.45484e-07
1.75801e-07
1.63536e-07
1.61966e-07
1.6164e-07
1.61599e-07
1.61587e-07
1.6158e-07
1.61531e-07
1.61461e-07
1.60807e-07
1.60237e-07
1.54288e-07
1.51533e-07
1.12758e-07
1.08406e-07
-1.51279e-05
2.13179e-05
4.05787e-06
7.66914e-07
2.45484e-07
1.75801e-07
1.63536e-07
1.61966e-07
1.6164e-07
1.61599e-07
1.61587e-07
1.6158e-07
1.61531e-07
1.61461e-07
1.60807e-07
1.60237e-07
1.54288e-07
1.51533e-07
1.12758e-07
1.08406e-07
-1.51279e-05
2.13179e-05
4.05787e-06
7.66914e-07
2.45484e-07
1.75801e-07
1.63536e-07
1.61966e-07
1.6164e-07
1.61599e-07
1.61587e-07
1.6158e-07
1.61531e-07
1.61461e-07
1.60807e-07
1.60237e-07
1.54288e-07
1.51533e-07
1.12758e-07
1.08406e-07
-1.5128e-05
2.13179e-05
4.05787e-06
7.66913e-07
2.45484e-07
1.75801e-07
1.63536e-07
1.61966e-07
1.6164e-07
1.61599e-07
1.61587e-07
1.6158e-07
1.61531e-07
1.61461e-07
1.60807e-07
1.60237e-07
1.54288e-07
1.51533e-07
1.12758e-07
1.08406e-07
-1.51281e-05
2.13179e-05
4.05786e-06
7.66912e-07
2.45484e-07
1.75801e-07
1.63536e-07
1.61966e-07
1.6164e-07
1.61599e-07
1.61587e-07
1.6158e-07
1.61531e-07
1.61461e-07
1.60807e-07
1.60237e-07
1.54288e-07
1.51533e-07
1.12758e-07
1.08406e-07
-1.51283e-05
2.13178e-05
4.05783e-06
7.6691e-07
2.45483e-07
1.75801e-07
1.63536e-07
1.61966e-07
1.6164e-07
1.61599e-07
1.61587e-07
1.6158e-07
1.61531e-07
1.61461e-07
1.60807e-07
1.60237e-07
1.54288e-07
1.51533e-07
1.12758e-07
1.08406e-07
-1.51285e-05
2.13177e-05
4.05781e-06
7.66908e-07
2.45483e-07
1.75801e-07
1.63536e-07
1.61966e-07
1.6164e-07
1.61599e-07
1.61587e-07
1.6158e-07
1.61531e-07
1.61461e-07
1.60807e-07
1.60237e-07
1.54288e-07
1.51533e-07
1.12758e-07
1.08406e-07
-1.5128e-05
2.13176e-05
4.05772e-06
7.66891e-07
2.45479e-07
1.758e-07
1.63536e-07
1.61966e-07
1.6164e-07
1.61599e-07
1.61587e-07
1.61581e-07
1.61531e-07
1.61461e-07
1.60807e-07
1.60237e-07
1.54288e-07
1.51534e-07
1.12758e-07
1.08406e-07
-1.51278e-05
2.13175e-05
4.05765e-06
7.66878e-07
2.45476e-07
1.758e-07
1.63536e-07
1.61966e-07
1.6164e-07
1.61599e-07
1.61587e-07
1.61581e-07
1.61531e-07
1.61461e-07
1.60808e-07
1.60237e-07
1.54288e-07
1.51534e-07
1.12759e-07
1.08407e-07
-1.51123e-05
2.13154e-05
4.05569e-06
7.6652e-07
2.45401e-07
1.75788e-07
1.63535e-07
1.61967e-07
1.61641e-07
1.616e-07
1.61588e-07
1.61582e-07
1.61533e-07
1.61462e-07
1.60809e-07
1.60239e-07
1.54293e-07
1.51538e-07
1.12767e-07
1.08411e-07
-1.51081e-05
2.13144e-05
4.05486e-06
7.66375e-07
2.45369e-07
1.75783e-07
1.63534e-07
1.61967e-07
1.61641e-07
1.616e-07
1.61588e-07
1.61582e-07
1.61533e-07
1.61462e-07
1.6081e-07
1.60239e-07
1.54294e-07
1.51539e-07
1.1277e-07
1.08413e-07
-1.48305e-05
2.1211e-05
3.99454e-06
7.57977e-07
2.43933e-07
1.75587e-07
1.63521e-07
1.61983e-07
1.61662e-07
1.61622e-07
1.6161e-07
1.61604e-07
1.61556e-07
1.61486e-07
1.60841e-07
1.60276e-07
1.54385e-07
1.51638e-07
1.13037e-07
1.08595e-07
-1.48365e-05
2.14297e-05
4.02932e-06
7.63748e-07
2.44749e-07
1.75752e-07
1.63558e-07
1.62076e-07
1.61751e-07
1.6171e-07
1.61698e-07
1.61692e-07
1.61643e-07
1.61572e-07
1.60916e-07
1.60292e-07
1.54312e-07
1.51543e-07
1.12458e-07
1.07987e-07
-1.5105e-05
2.15349e-05
4.09023e-06
7.72228e-07
2.462e-07
1.7595e-07
1.63569e-07
1.62061e-07
1.6173e-07
1.61688e-07
1.61676e-07
1.6167e-07
1.6162e-07
1.61549e-07
1.60884e-07
1.60255e-07
1.5422e-07
1.51444e-07
1.12187e-07
1.07801e-07
-1.51091e-05
2.1536e-05
4.09105e-06
7.72374e-07
2.46232e-07
1.75955e-07
1.6357e-07
1.62061e-07
1.6173e-07
1.61688e-07
1.61676e-07
1.6167e-07
1.6162e-07
1.61548e-07
1.60884e-07
1.60254e-07
1.54218e-07
1.51443e-07
1.12184e-07
1.07799e-07
-1.51242e-05
2.15381e-05
4.09304e-06
7.72735e-07
2.46308e-07
1.75967e-07
1.63571e-07
1.6206e-07
1.61729e-07
1.61687e-07
1.61675e-07
1.61669e-07
1.61619e-07