/*--------------------------------*- C++ -*----------------------------------*\
  =========                 |
  \\      /  F ield         | OpenFOAM: The Open Source CFD Toolbox
   \\    /   O peration     | Website:  https://openfoam.org
    \\  /    A nd           | Version:  8
     \\/     M anipulation  |
\*---------------------------------------------------------------------------*/
FoamFile
{
    version     2.0;
    format      ascii;
    class       volScalarField;
    location    "0.5";
    object      S1;
}
// * * * * * * * * * * * * * * * * * * * * * * * * * * * * * * * * * * * * * //

dimensions      [0 1 -1 0 0 0 0];

internalField   nonuniform List<scalar> 
180000
(
-1.82917e-42
-8.40168e-37
-3.69109e-31
-1.53364e-25
-5.91603e-20
-2.33837e-42
-1.07322e-36
-4.70833e-31
-1.95277e-25
-7.51897e-20
-2.35006e-42
-1.07861e-36
-4.73199e-31
-1.96259e-25
-7.55689e-20
-2.38043e-42
-1.09274e-36
-4.79475e-31
-1.98893e-25
-7.65971e-20
-2.38054e-42
-1.09281e-36
-4.79513e-31
-1.98913e-25
-7.66062e-20
-2.38056e-42
-1.09284e-36
-4.79537e-31
-1.98928e-25
-7.66143e-20
-2.38007e-42
-1.09262e-36
-4.79443e-31
-1.9889e-25
-7.66003e-20
-2.37956e-42
-1.09238e-36
-4.79341e-31
-1.98848e-25
-7.65844e-20
-2.3793e-42
-1.09226e-36
-4.7929e-31
-1.98828e-25
-7.65767e-20
-2.37914e-42
-1.09219e-36
-4.79258e-31
-1.98814e-25
-7.65716e-20
-2.37914e-42
-1.09219e-36
-4.79258e-31
-1.98814e-25
-7.65716e-20
-2.3793e-42
-1.09226e-36
-4.7929e-31
-1.98828e-25
-7.65767e-20
-2.37956e-42
-1.09238e-36
-4.79341e-31
-1.98848e-25
-7.65844e-20
-2.38007e-42
-1.09262e-36
-4.79443e-31
-1.9889e-25
-7.66003e-20
-2.38056e-42
-1.09284e-36
-4.79537e-31
-1.98928e-25
-7.66143e-20
-2.38054e-42
-1.09281e-36
-4.79513e-31
-1.98913e-25
-7.66062e-20
-2.38043e-42
-1.09274e-36
-4.79475e-31
-1.98893e-25
-7.65971e-20
-2.35006e-42
-1.07861e-36
-4.73199e-31
-1.96259e-25
-7.55689e-20
-2.33838e-42
-1.07322e-36
-4.70834e-31
-1.95277e-25
-7.51897e-20
-1.82917e-42
-8.40168e-37
-3.69109e-31
-1.53364e-25
-5.91603e-20
-5.78956e-42
-5.21686e-36
-5.70741e-30
-6.14937e-24
-8.85813e-18
-7.067e-42
-6.34146e-36
-6.94862e-30
-7.53172e-24
-1.09075e-17
-7.09642e-42
-6.36713e-36
-6.97659e-30
-7.56242e-24
-1.09526e-17
-7.17594e-42
-6.43826e-36
-7.05586e-30
-7.6507e-24
-1.10839e-17
-7.17659e-42
-6.43893e-36
-7.05664e-30
-7.65155e-24
-1.10852e-17
-7.17718e-42
-6.4396e-36
-7.0575e-30
-7.65247e-24
-1.10867e-17
-7.17618e-42
-6.43875e-36
-7.05656e-30
-7.65139e-24
-1.10851e-17
-7.17521e-42
-6.4379e-36
-7.05559e-30
-7.65021e-24
-1.10832e-17
-7.17469e-42
-6.43745e-36
-7.05508e-30
-7.64962e-24
-1.10823e-17
-7.17439e-42
-6.43719e-36
-7.05478e-30
-7.64924e-24
-1.10818e-17
-7.17439e-42
-6.43719e-36
-7.05478e-30
-7.64924e-24
-1.10818e-17
-7.17469e-42
-6.43745e-36
-7.05508e-30
-7.64962e-24
-1.10823e-17
-7.17521e-42
-6.4379e-36
-7.05559e-30
-7.65021e-24
-1.10832e-17
-7.17618e-42
-6.43875e-36
-7.05656e-30
-7.65139e-24
-1.10851e-17
-7.17718e-42
-6.4396e-36
-7.0575e-30
-7.65247e-24
-1.10867e-17
-7.17659e-42
-6.43893e-36
-7.05664e-30
-7.65155e-24
-1.10852e-17
-7.17594e-42
-6.43826e-36
-7.05586e-30
-7.6507e-24
-1.10839e-17
-7.09642e-42
-6.36713e-36
-6.97659e-30
-7.56242e-24
-1.09526e-17
-7.067e-42
-6.34146e-36
-6.94862e-30
-7.53172e-24
-1.09075e-17
-5.78956e-42
-5.21686e-36
-5.70741e-30
-6.14937e-24
-8.85813e-18
-6.16945e-40
-6.75887e-34
-8.1822e-28
-9.12888e-22
-1.32967e-15
-7.22538e-40
-7.97154e-34
-9.72007e-28
-1.09253e-21
-1.60005e-15
-7.24845e-40
-7.99755e-34
-9.75253e-28
-1.09626e-21
-1.6056e-15
-7.31452e-40
-8.07325e-34
-9.84856e-28
-1.10742e-21
-1.62243e-15
-7.31521e-40
-8.074e-34
-9.84948e-28
-1.10752e-21
-1.62258e-15
-7.31598e-40
-8.07483e-34
-9.85054e-28
-1.10763e-21
-1.62275e-15
-7.3153e-40
-8.074e-34
-9.84943e-28
-1.1075e-21
-1.62254e-15
-7.31472e-40
-8.07321e-34
-9.8483e-28
-1.10735e-21
-1.62231e-15
-7.31437e-40
-8.07277e-34
-9.84771e-28
-1.10727e-21
-1.6222e-15
-7.3142e-40
-8.07253e-34
-9.84736e-28
-1.10723e-21
-1.62212e-15
-7.3142e-40
-8.07253e-34
-9.84736e-28
-1.10723e-21
-1.62212e-15
-7.31437e-40
-8.07277e-34
-9.84771e-28
-1.10727e-21
-1.6222e-15
-7.31472e-40
-8.07321e-34
-9.8483e-28
-1.10735e-21
-1.62231e-15
-7.3153e-40
-8.074e-34
-9.84943e-28
-1.1075e-21
-1.62254e-15
-7.31598e-40
-8.07483e-34
-9.85054e-28
-1.10763e-21
-1.62275e-15
-7.31521e-40
-8.074e-34
-9.84948e-28
-1.10752e-21
-1.62258e-15
-7.31452e-40
-8.07325e-34
-9.84856e-28
-1.10742e-21
-1.62243e-15
-7.24845e-40
-7.99755e-34
-9.75254e-28
-1.09626e-21
-1.6056e-15
-7.22538e-40
-7.97155e-34
-9.72008e-28
-1.09253e-21
-1.60005e-15
-6.16945e-40
-6.75887e-34
-8.1822e-28
-9.12888e-22
-1.32967e-15
-4.43542e-38
-4.72894e-32
-5.57483e-26
-6.03989e-20
-8.57335e-14
-5.07717e-38
-5.45031e-32
-6.47009e-26
-7.05982e-20
-1.00732e-13
-5.09076e-38
-5.46523e-32
-6.48823e-26
-7.08003e-20
-1.01025e-13
-5.13037e-38
-5.50952e-32
-6.5431e-26
-7.14205e-20
-1.01937e-13
-5.13079e-38
-5.50996e-32
-6.54362e-26
-7.14259e-20
-1.01945e-13
-5.13127e-38
-5.51046e-32
-6.54423e-26
-7.1432e-20
-1.01954e-13
-5.13088e-38
-5.50999e-32
-6.54361e-26
-7.14243e-20
-1.01943e-13
-5.13057e-38
-5.50955e-32
-6.54298e-26
-7.1416e-20
-1.0193e-13
-5.13038e-38
-5.5093e-32
-6.54264e-26
-7.14119e-20
-1.01924e-13
-5.13029e-38
-5.50917e-32
-6.54245e-26
-7.14093e-20
-1.0192e-13
-5.13029e-38
-5.50917e-32
-6.54245e-26
-7.14093e-20
-1.0192e-13
-5.13038e-38
-5.5093e-32
-6.54264e-26
-7.14119e-20
-1.01924e-13
-5.13057e-38
-5.50955e-32
-6.54298e-26
-7.1416e-20
-1.0193e-13
-5.13088e-38
-5.50999e-32
-6.54361e-26
-7.14243e-20
-1.01943e-13
-5.13127e-38
-5.51046e-32
-6.54423e-26
-7.1432e-20
-1.01954e-13
-5.13079e-38
-5.50996e-32
-6.54362e-26
-7.14259e-20
-1.01945e-13
-5.13037e-38
-5.50952e-32
-6.5431e-26
-7.14205e-20
-1.01937e-13
-5.09076e-38
-5.46523e-32
-6.48823e-26
-7.08003e-20
-1.01025e-13
-5.07717e-38
-5.45032e-32
-6.47009e-26
-7.05982e-20
-1.00732e-13
-4.43542e-38
-4.72894e-32
-5.57483e-26
-6.03989e-20
-8.57335e-14
-1.82879e-36
-1.87242e-30
-2.12481e-24
-2.20899e-18
-3.02526e-12
-2.04287e-36
-2.10551e-30
-2.4055e-24
-2.51811e-18
-3.4657e-12
-2.04737e-36
-2.11025e-30
-2.41106e-24
-2.52406e-18
-3.47402e-12
-2.06055e-36
-2.12446e-30
-2.42808e-24
-2.54257e-18
-3.50034e-12
-2.0607e-36
-2.12461e-30
-2.42825e-24
-2.54273e-18
-3.50056e-12
-2.06088e-36
-2.12478e-30
-2.42845e-24
-2.54291e-18
-3.50083e-12
-2.06076e-36
-2.12464e-30
-2.42826e-24
-2.54269e-18
-3.5005e-12
-2.06068e-36
-2.12451e-30
-2.42808e-24
-2.54244e-18
-3.50013e-12
-2.06062e-36
-2.12444e-30
-2.42798e-24
-2.54232e-18
-3.49995e-12
-2.0606e-36
-2.1244e-30
-2.42792e-24
-2.54224e-18
-3.49984e-12
-2.0606e-36
-2.1244e-30
-2.42792e-24
-2.54224e-18
-3.49984e-12
-2.06062e-36
-2.12444e-30
-2.42798e-24
-2.54232e-18
-3.49995e-12
-2.06068e-36
-2.12451e-30
-2.42808e-24
-2.54244e-18
-3.50013e-12
-2.06076e-36
-2.12464e-30
-2.42826e-24
-2.54269e-18
-3.5005e-12
-2.06088e-36
-2.12478e-30
-2.42845e-24
-2.54291e-18
-3.50083e-12
-2.0607e-36
-2.12461e-30
-2.42825e-24
-2.54273e-18
-3.50056e-12
-2.06055e-36
-2.12446e-30
-2.42808e-24
-2.54257e-18
-3.50034e-12
-2.04737e-36
-2.11025e-30
-2.41106e-24
-2.52406e-18
-3.47402e-12
-2.04287e-36
-2.10551e-30
-2.4055e-24
-2.51811e-18
-3.46571e-12
-1.82879e-36
-1.87242e-30
-2.12481e-24
-2.20899e-18
-3.02526e-12
-4.87163e-35
-4.74713e-29
-5.1416e-23
-5.08228e-17
-6.6592e-11
-5.301e-35
-5.19904e-29
-5.66816e-23
-5.64045e-17
-7.42504e-11
-5.31023e-35
-5.2083e-29
-5.67854e-23
-5.65102e-17
-7.43914e-11
-5.33709e-35
-5.23605e-29
-5.71048e-23
-5.68417e-17
-7.48437e-11
-5.33746e-35
-5.23638e-29
-5.71083e-23
-5.68448e-17
-7.48477e-11
-5.33788e-35
-5.23677e-29
-5.71125e-23
-5.68483e-17
-7.48526e-11
-5.33769e-35
-5.23652e-29
-5.71093e-23
-5.68444e-17
-7.48471e-11
-5.3376e-35
-5.23633e-29
-5.71062e-23
-5.68402e-17
-7.48408e-11
-5.33751e-35
-5.23621e-29
-5.71045e-23
-5.68381e-17
-7.48378e-11
-5.3375e-35
-5.23616e-29
-5.71036e-23
-5.68368e-17
-7.48358e-11
-5.3375e-35
-5.23616e-29
-5.71036e-23
-5.68368e-17
-7.48358e-11
-5.33751e-35
-5.23621e-29
-5.71045e-23
-5.68381e-17
-7.48378e-11
-5.3376e-35
-5.23633e-29
-5.71062e-23
-5.68402e-17
-7.48408e-11
-5.33769e-35
-5.23652e-29
-5.71093e-23
-5.68444e-17
-7.48471e-11
-5.33788e-35
-5.23677e-29
-5.71125e-23
-5.68483e-17
-7.48526e-11
-5.33746e-35
-5.23638e-29
-5.71083e-23
-5.68448e-17
-7.48477e-11
-5.33709e-35
-5.23605e-29
-5.71048e-23
-5.68417e-17
-7.48437e-11
-5.31023e-35
-5.20831e-29
-5.67854e-23
-5.65102e-17
-7.43914e-11
-5.301e-35
-5.19904e-29
-5.66816e-23
-5.64046e-17
-7.42504e-11
-4.87163e-35
-4.74713e-29
-5.1416e-23
-5.08228e-17
-6.6592e-11
-9.04449e-34
-8.31135e-28
-8.51582e-22
-7.92506e-16
-9.84206e-10
-9.56689e-34
-8.84721e-28
-9.12268e-22
-8.54484e-16
-1.06567e-09
-9.57905e-34
-8.85875e-28
-9.13494e-22
-8.55658e-16
-1.06715e-09
-9.61371e-34
-8.89291e-28
-9.17259e-22
-8.59358e-16
-1.07194e-09
-9.61433e-34
-8.89342e-28
-9.17308e-22
-8.59397e-16
-1.07199e-09
-9.61508e-34
-8.89404e-28
-9.1737e-22
-8.59443e-16
-1.07205e-09
-9.61496e-34
-8.89383e-28
-9.17339e-22
-8.59403e-16
-1.072e-09
-9.61505e-34
-8.89374e-28
-9.17314e-22
-8.59361e-16
-1.07193e-09
-9.61501e-34
-8.89364e-28
-9.17298e-22
-8.59339e-16
-1.0719e-09
-9.61506e-34
-8.89362e-28
-9.17291e-22
-8.59327e-16
-1.07188e-09
-9.61506e-34
-8.89362e-28
-9.17291e-22
-8.59327e-16
-1.07188e-09
-9.61501e-34
-8.89364e-28
-9.17298e-22
-8.59339e-16
-1.0719e-09
-9.61505e-34
-8.89374e-28
-9.17314e-22
-8.59361e-16
-1.07193e-09
-9.61496e-34
-8.89383e-28
-9.17339e-22
-8.59403e-16
-1.072e-09
-9.61508e-34
-8.89404e-28
-9.1737e-22
-8.59443e-16
-1.07205e-09
-9.61433e-34
-8.89342e-28
-9.17308e-22
-8.59397e-16
-1.07199e-09
-9.61371e-34
-8.89291e-28
-9.17259e-22
-8.59358e-16
-1.07194e-09
-9.57905e-34
-8.85875e-28
-9.13494e-22
-8.55658e-16
-1.06715e-09
-9.56689e-34
-8.84721e-28
-9.12268e-22
-8.54484e-16
-1.06567e-09
-9.04449e-34
-8.31135e-28
-8.51582e-22
-7.92506e-16
-9.84206e-10
-1.2208e-32
-1.04582e-26
-1.00216e-20
-8.66637e-15
-1.0069e-08
-1.25203e-32
-1.07923e-26
-1.04046e-20
-9.0521e-15
-1.05536e-08
-1.25301e-32
-1.0801e-26
-1.04132e-20
-9.05974e-15
-1.05625e-08
-1.25561e-32
-1.08256e-26
-1.04393e-20
-9.08376e-15
-1.05916e-08
-1.25569e-32
-1.08262e-26
-1.04398e-20
-9.08411e-15
-1.0592e-08
-1.25579e-32
-1.0827e-26
-1.04405e-20
-9.08453e-15
-1.05925e-08
-1.25581e-32
-1.0827e-26
-1.04404e-20
-9.08434e-15
-1.05922e-08
-1.25586e-32
-1.08272e-26
-1.04404e-20
-9.08417e-15
-1.05919e-08
-1.25587e-32
-1.08272e-26
-1.04403e-20
-9.08406e-15
-1.05917e-08
-1.25589e-32
-1.08273e-26
-1.04404e-20
-9.08401e-15
-1.05916e-08
-1.25589e-32
-1.08273e-26
-1.04404e-20
-9.08401e-15
-1.05916e-08
-1.25587e-32
-1.08272e-26
-1.04403e-20
-9.08406e-15
-1.05917e-08
-1.25586e-32
-1.08272e-26
-1.04404e-20
-9.08417e-15
-1.05919e-08
-1.25581e-32
-1.0827e-26
-1.04404e-20
-9.08434e-15
-1.05922e-08
-1.25579e-32
-1.0827e-26
-1.04405e-20
-9.08453e-15
-1.05925e-08
-1.25569e-32
-1.08262e-26
-1.04398e-20
-9.08411e-15
-1.0592e-08
-1.25561e-32
-1.08256e-26
-1.04393e-20
-9.08376e-15
-1.05916e-08
-1.25301e-32
-1.0801e-26
-1.04132e-20
-9.05974e-15
-1.05625e-08
-1.25203e-32
-1.07923e-26
-1.04046e-20
-9.0521e-15
-1.05536e-08
-1.2208e-32
-1.04582e-26
-1.00216e-20
-8.66637e-15
-1.0069e-08
-1.20305e-31
-9.43961e-26
-8.30447e-20
-6.52457e-14
-6.92031e-08
-1.19252e-31
-9.41298e-26
-8.32593e-20
-6.57479e-14
-6.98553e-08
-1.19281e-31
-9.4154e-26
-8.32814e-20
-6.57646e-14
-6.98702e-08
-1.19331e-31
-9.42071e-26
-8.33409e-20
-6.58151e-14
-6.99222e-08
-1.19338e-31
-9.42119e-26
-8.33446e-20
-6.58172e-14
-6.99241e-08
-1.19348e-31
-9.42184e-26
-8.33498e-20
-6.58198e-14
-6.99267e-08
-1.19353e-31
-9.42214e-26
-8.33515e-20
-6.58204e-14
-6.99271e-08
-1.19363e-31
-9.42266e-26
-8.33547e-20
-6.58215e-14
-6.99276e-08
-1.19366e-31
-9.42283e-26
-8.33557e-20
-6.58217e-14
-6.99278e-08
-1.19369e-31
-9.42301e-26
-8.33567e-20
-6.58221e-14
-6.99279e-08
-1.19369e-31
-9.42301e-26
-8.33567e-20
-6.58221e-14
-6.99279e-08
-1.19366e-31
-9.42283e-26
-8.33557e-20
-6.58217e-14
-6.99278e-08
-1.19363e-31
-9.42266e-26
-8.33547e-20
-6.58215e-14
-6.99276e-08
-1.19353e-31
-9.42214e-26
-8.33515e-20
-6.58204e-14
-6.99271e-08
-1.19348e-31
-9.42184e-26
-8.33498e-20
-6.58198e-14
-6.99267e-08
-1.19338e-31
-9.42119e-26
-8.33446e-20
-6.58172e-14
-6.99241e-08
-1.19331e-31
-9.42071e-26
-8.33409e-20
-6.58151e-14
-6.99222e-08
-1.19281e-31
-9.4154e-26
-8.32814e-20
-6.57646e-14
-6.98702e-08
-1.19252e-31
-9.41298e-26
-8.32593e-20
-6.57479e-14
-6.98553e-08
-1.20305e-31
-9.43961e-26
-8.30447e-20
-6.52457e-14
-6.92031e-08
-8.03139e-31
-5.56241e-25
-4.29518e-19
-2.88196e-13
-2.56806e-07
-7.67498e-31
-5.34351e-25
-4.14036e-19
-2.78251e-13
-2.46667e-07
-7.67256e-31
-5.34174e-25
-4.13885e-19
-2.78126e-13
-2.46513e-07
-7.66218e-31
-5.33484e-25
-4.1335e-19
-2.77712e-13
-2.46035e-07
-7.66267e-31
-5.33511e-25
-4.13366e-19
-2.77719e-13
-2.46039e-07
-7.66338e-31
-5.3355e-25
-4.13392e-19
-2.77728e-13
-2.46045e-07
-7.66399e-31
-5.33585e-25
-4.13416e-19
-2.77741e-13
-2.46057e-07
-7.66489e-31
-5.33637e-25
-4.13449e-19
-2.77758e-13
-2.46072e-07
-7.66523e-31
-5.33656e-25
-4.13462e-19
-2.77765e-13
-2.46078e-07
-7.66553e-31
-5.33673e-25
-4.13472e-19
-2.7777e-13
-2.46083e-07
-7.66553e-31
-5.33673e-25
-4.13472e-19
-2.7777e-13
-2.46083e-07
-7.66523e-31
-5.33656e-25
-4.13462e-19
-2.77765e-13
-2.46078e-07
-7.66489e-31
-5.33637e-25
-4.13449e-19
-2.77758e-13
-2.46072e-07
-7.66399e-31
-5.33585e-25
-4.13416e-19
-2.77741e-13
-2.46057e-07
-7.66338e-31
-5.3355e-25
-4.13392e-19
-2.77728e-13
-2.46045e-07
-7.66267e-31
-5.33511e-25
-4.13366e-19
-2.77719e-13
-2.46039e-07
-7.66218e-31
-5.33484e-25
-4.1335e-19
-2.77712e-13
-2.46035e-07
-7.67256e-31
-5.34174e-25
-4.13885e-19
-2.78126e-13
-2.46513e-07
-7.67498e-31
-5.34351e-25
-4.14036e-19
-2.78251e-13
-2.46667e-07
-8.03139e-31
-5.56241e-25
-4.29518e-19
-2.88196e-13
-2.56806e-07
-3.04147e-30
-1.759e-24
-1.08504e-18
-5.27178e-13
-2.65496e-07
-2.87023e-30
-1.67172e-24
-1.03733e-18
-5.06622e-13
-2.55454e-07
-2.86879e-30
-1.6709e-24
-1.03682e-18
-5.06358e-13
-2.55305e-07
-2.86329e-30
-1.66791e-24
-1.03508e-18
-5.05497e-13
-2.54843e-07
-2.86348e-30
-1.668e-24
-1.03512e-18
-5.05509e-13
-2.54848e-07
-2.86378e-30
-1.66814e-24
-1.03519e-18
-5.05529e-13
-2.54856e-07
-2.86404e-30
-1.66826e-24
-1.03526e-18
-5.05554e-13
-2.54868e-07
-2.86442e-30
-1.66844e-24
-1.03535e-18
-5.05588e-13
-2.54883e-07
-2.86457e-30
-1.66852e-24
-1.03539e-18
-5.05602e-13
-2.5489e-07
-2.86469e-30
-1.66857e-24
-1.03542e-18
-5.05613e-13
-2.54894e-07
-2.86469e-30
-1.66857e-24
-1.03542e-18
-5.05613e-13
-2.54894e-07
-2.86457e-30
-1.66852e-24
-1.03539e-18
-5.05602e-13
-2.5489e-07
-2.86442e-30
-1.66844e-24
-1.03535e-18
-5.05588e-13
-2.54883e-07
-2.86404e-30
-1.66826e-24
-1.03526e-18
-5.05554e-13
-2.54868e-07
-2.86378e-30
-1.66814e-24
-1.03519e-18
-5.05529e-13
-2.54856e-07
-2.86348e-30
-1.668e-24
-1.03512e-18
-5.05509e-13
-2.54848e-07
-2.86329e-30
-1.66791e-24
-1.03508e-18
-5.05497e-13
-2.54843e-07
-2.86879e-30
-1.6709e-24
-1.03682e-18
-5.06358e-13
-2.55305e-07
-2.87023e-30
-1.67172e-24
-1.03733e-18
-5.06622e-13
-2.55454e-07
-3.04147e-30
-1.759e-24
-1.08504e-18
-5.27178e-13
-2.65496e-07
-8.44598e-30
-4.12964e-24
-2.08617e-18
-7.82041e-13
-2.73939e-07
-7.92675e-30
-3.90765e-24
-1.98867e-18
-7.50711e-13
-2.63995e-07
-7.92223e-30
-3.90551e-24
-1.98763e-18
-7.50313e-13
-2.6385e-07
-7.90541e-30
-3.89789e-24
-1.98409e-18
-7.49022e-13
-2.63407e-07
-7.90599e-30
-3.89811e-24
-1.98418e-18
-7.49042e-13
-2.63412e-07
-7.90686e-30
-3.89845e-24
-1.98433e-18
-7.49073e-13
-2.63422e-07
-7.90764e-30
-3.89877e-24
-1.98446e-18
-7.49112e-13
-2.63434e-07
-7.90875e-30
-3.89921e-24
-1.98465e-18
-7.49164e-13
-2.63449e-07
-7.90918e-30
-3.89939e-24
-1.98472e-18
-7.49185e-13
-2.63456e-07
-7.90954e-30
-3.89953e-24
-1.98478e-18
-7.49201e-13
-2.6346e-07
-7.90954e-30
-3.89953e-24
-1.98478e-18
-7.49201e-13
-2.6346e-07
-7.90918e-30
-3.89939e-24
-1.98472e-18
-7.49185e-13
-2.63456e-07
-7.90875e-30
-3.89921e-24
-1.98465e-18
-7.49164e-13
-2.63449e-07
-7.90764e-30
-3.89877e-24
-1.98446e-18
-7.49112e-13
-2.63434e-07
-7.90686e-30
-3.89845e-24
-1.98433e-18
-7.49073e-13
-2.63422e-07
-7.90599e-30
-3.89811e-24
-1.98418e-18
-7.49042e-13
-2.63412e-07
-7.90541e-30
-3.89789e-24
-1.98409e-18
-7.49022e-13
-2.63407e-07
-7.92223e-30
-3.90551e-24
-1.98763e-18
-7.50313e-13
-2.63851e-07
-7.92675e-30
-3.90765e-24
-1.98867e-18
-7.50711e-13
-2.63995e-07
-8.44598e-30
-4.12964e-24
-2.08617e-18
-7.82041e-13
-2.73939e-07
-1.94048e-29
-8.16508e-24
-3.47107e-18
-1.0529e-12
-2.82292e-07
-1.81616e-29
-7.71042e-24
-3.30517e-18
-1.01064e-12
-2.72453e-07
-1.81508e-29
-7.70605e-24
-3.30341e-18
-1.01012e-12
-2.72312e-07
-1.81111e-29
-7.69069e-24
-3.29752e-18
-1.00841e-12
-2.71886e-07
-1.81125e-29
-7.69116e-24
-3.29768e-18
-1.00844e-12
-2.71892e-07
-1.81146e-29
-7.69187e-24
-3.29794e-18
-1.00849e-12
-2.71903e-07
-1.81165e-29
-7.69252e-24
-3.29817e-18
-1.00854e-12
-2.71916e-07
-1.81191e-29
-7.69343e-24
-3.29848e-18
-1.00861e-12
-2.71931e-07
-1.81201e-29
-7.69378e-24
-3.29861e-18
-1.00864e-12
-2.71938e-07
-1.8121e-29
-7.69408e-24
-3.29871e-18
-1.00866e-12
-2.71942e-07
-1.8121e-29
-7.69408e-24
-3.29871e-18
-1.00866e-12
-2.71942e-07
-1.81201e-29
-7.69378e-24
-3.29861e-18
-1.00864e-12
-2.71938e-07
-1.81191e-29
-7.69343e-24
-3.29848e-18
-1.00861e-12
-2.71931e-07
-1.81165e-29
-7.69252e-24
-3.29817e-18
-1.00854e-12
-2.71916e-07
-1.81146e-29
-7.69187e-24
-3.29794e-18
-1.00849e-12
-2.71903e-07
-1.81125e-29
-7.69116e-24
-3.29768e-18
-1.00844e-12
-2.71892e-07
-1.81111e-29
-7.69069e-24
-3.29752e-18
-1.00841e-12
-2.71886e-07
-1.81508e-29
-7.70605e-24
-3.30341e-18
-1.01012e-12
-2.72312e-07
-1.81616e-29
-7.71042e-24
-3.30517e-18
-1.01064e-12
-2.72453e-07
-1.94048e-29
-8.16508e-24
-3.47107e-18
-1.0529e-12
-2.82292e-07
-3.92548e-29
-1.4439e-23
-5.2796e-18
-1.33987e-12
-2.90546e-07
-3.66864e-29
-1.36216e-23
-5.02557e-18
-1.28652e-12
-2.80817e-07
-3.66644e-29
-1.36139e-23
-5.02292e-18
-1.28587e-12
-2.80681e-07
-3.65842e-29
-1.3587e-23
-5.01415e-18
-1.28378e-12
-2.80272e-07
-3.65872e-29
-1.35878e-23
-5.01441e-18
-1.28382e-12
-2.80279e-07
-3.65917e-29
-1.35892e-23
-5.01483e-18
-1.28388e-12
-2.80292e-07
-3.65956e-29
-1.35904e-23
-5.01518e-18
-1.28395e-12
-2.80304e-07
-3.6601e-29
-1.3592e-23
-5.01567e-18
-1.28404e-12
-2.8032e-07
-3.66031e-29
-1.35926e-23
-5.01586e-18
-1.28408e-12
-2.80326e-07
-3.66048e-29
-1.35931e-23
-5.01602e-18
-1.2841e-12
-2.80331e-07
-3.66048e-29
-1.35931e-23
-5.01602e-18
-1.2841e-12
-2.80331e-07
-3.66031e-29
-1.35926e-23
-5.01586e-18
-1.28408e-12
-2.80326e-07
-3.6601e-29
-1.3592e-23
-5.01567e-18
-1.28404e-12
-2.8032e-07
-3.65956e-29
-1.35904e-23
-5.01518e-18
-1.28395e-12
-2.80304e-07
-3.65917e-29
-1.35892e-23
-5.01483e-18
-1.28388e-12
-2.80292e-07
-3.65872e-29
-1.35878e-23
-5.01441e-18
-1.28382e-12
-2.80279e-07
-3.65842e-29
-1.3587e-23
-5.01415e-18
-1.28378e-12
-2.80272e-07
-3.66644e-29
-1.36139e-23
-5.02292e-18
-1.28587e-12
-2.80681e-07
-3.66864e-29
-1.36216e-23
-5.02557e-18
-1.28652e-12
-2.80817e-07
-3.92548e-29
-1.4439e-23
-5.2796e-18
-1.33987e-12
-2.90546e-07
-7.2482e-29
-2.36091e-23
-7.55341e-18
-1.643e-12
-2.98691e-07
-6.7688e-29
-2.22635e-23
-7.19039e-18
-1.57843e-12
-2.89078e-07
-6.76478e-29
-2.2251e-23
-7.1867e-18
-1.57766e-12
-2.88947e-07
-6.75023e-29
-2.22079e-23
-7.17455e-18
-1.5752e-12
-2.88555e-07
-6.7508e-29
-2.22094e-23
-7.17494e-18
-1.57525e-12
-2.88563e-07
-6.75169e-29
-2.22118e-23
-7.17557e-18
-1.57534e-12
-2.88577e-07
-6.75242e-29
-2.22137e-23
-7.17609e-18
-1.57542e-12
-2.8859e-07
-6.75342e-29
-2.22164e-23
-7.17678e-18
-1.57553e-12
-2.88605e-07
-6.75382e-29
-2.22174e-23
-7.17706e-18
-1.57557e-12
-2.88612e-07
-6.75414e-29
-2.22183e-23
-7.17728e-18
-1.57561e-12
-2.88617e-07
-6.75414e-29
-2.22183e-23
-7.17728e-18
-1.57561e-12
-2.88617e-07
-6.75382e-29
-2.22174e-23
-7.17706e-18
-1.57557e-12
-2.88612e-07
-6.75342e-29
-2.22164e-23
-7.17678e-18
-1.57553e-12
-2.88605e-07
-6.75242e-29
-2.22137e-23
-7.17609e-18
-1.57542e-12
-2.8859e-07
-6.75169e-29
-2.22118e-23
-7.17557e-18
-1.57534e-12
-2.88577e-07
-6.7508e-29
-2.22094e-23
-7.17494e-18
-1.57525e-12
-2.88563e-07
-6.75023e-29
-2.22079e-23
-7.17455e-18
-1.5752e-12
-2.88555e-07
-6.76478e-29
-2.2251e-23
-7.1867e-18
-1.57766e-12
-2.88947e-07
-6.7688e-29
-2.22635e-23
-7.19039e-18
-1.57843e-12
-2.89078e-07
-7.2482e-29
-2.36091e-23
-7.55341e-18
-1.643e-12
-2.98691e-07
-1.24954e-28
-3.64258e-23
-1.0336e-17
-1.96236e-12
-3.06712e-07
-1.16649e-28
-3.43467e-23
-9.84202e-18
-1.88643e-12
-2.97223e-07
-1.16581e-28
-3.4328e-23
-9.83714e-18
-1.88554e-12
-2.97096e-07
-1.16337e-28
-3.42635e-23
-9.82116e-18
-1.88274e-12
-2.96723e-07
-1.16347e-28
-3.42659e-23
-9.82171e-18
-1.8828e-12
-2.96731e-07
-1.16363e-28
-3.42697e-23
-9.82262e-18
-1.88291e-12
-2.96746e-07
-1.16376e-28
-3.42727e-23
-9.82334e-18
-1.88301e-12
-2.96759e-07
-1.16393e-28
-3.42769e-23
-9.82429e-18
-1.88314e-12
-2.96775e-07
-1.164e-28
-3.42785e-23
-9.82467e-18
-1.88319e-12
-2.96781e-07
-1.16406e-28
-3.42798e-23
-9.82497e-18
-1.88323e-12
-2.96786e-07
-1.16406e-28
-3.42798e-23
-9.82497e-18
-1.88323e-12
-2.96786e-07
-1.164e-28
-3.42785e-23
-9.82467e-18
-1.88319e-12
-2.96781e-07
-1.16393e-28
-3.42769e-23
-9.82429e-18
-1.88314e-12
-2.96775e-07
-1.16376e-28
-3.42727e-23
-9.82334e-18
-1.88301e-12
-2.96759e-07
-1.16363e-28
-3.42697e-23
-9.82262e-18
-1.88291e-12
-2.96746e-07
-1.16347e-28
-3.42659e-23
-9.82171e-18
-1.8828e-12
-2.96731e-07
-1.16337e-28
-3.42635e-23
-9.82116e-18
-1.88274e-12
-2.96723e-07
-1.16581e-28
-3.4328e-23
-9.83714e-18
-1.88554e-12
-2.97096e-07
-1.16649e-28
-3.43467e-23
-9.84202e-18
-1.88643e-12
-2.97223e-07
-1.24954e-28
-3.64258e-23
-1.0336e-17
-1.96236e-12
-3.06712e-07
-2.04191e-28
-5.37412e-23
-1.3673e-17
-2.29794e-12
-3.14595e-07
-1.90603e-28
-5.06795e-23
-1.30248e-17
-2.21054e-12
-3.05237e-07
-1.90495e-28
-5.06527e-23
-1.30186e-17
-2.20954e-12
-3.05115e-07
-1.90109e-28
-5.0561e-23
-1.29984e-17
-2.20641e-12
-3.04759e-07
-1.90127e-28
-5.05647e-23
-1.29991e-17
-2.2065e-12
-3.04768e-07
-1.90154e-28
-5.05705e-23
-1.30004e-17
-2.20663e-12
-3.04784e-07
-1.90175e-28
-5.05751e-23
-1.30013e-17
-2.20675e-12
-3.04797e-07
-1.90204e-28
-5.05812e-23
-1.30026e-17
-2.20689e-12
-3.04813e-07
-1.90215e-28
-5.05836e-23
-1.30031e-17
-2.20696e-12
-3.0482e-07
-1.90224e-28
-5.05856e-23
-1.30035e-17
-2.207e-12
-3.04824e-07
-1.90224e-28
-5.05856e-23
-1.30035e-17
-2.207e-12
-3.04824e-07
-1.90215e-28
-5.05836e-23
-1.30031e-17
-2.20696e-12
-3.0482e-07
-1.90204e-28
-5.05812e-23
-1.30026e-17
-2.20689e-12
-3.04813e-07
-1.90175e-28
-5.05751e-23
-1.30013e-17
-2.20675e-12
-3.04797e-07
-1.90154e-28
-5.05705e-23
-1.30004e-17
-2.20663e-12
-3.04784e-07
-1.90127e-28
-5.05647e-23
-1.29991e-17
-2.2065e-12
-3.04768e-07
-1.90109e-28
-5.0561e-23
-1.29984e-17
-2.20641e-12
-3.04759e-07
-1.90495e-28
-5.06527e-23
-1.30186e-17
-2.20954e-12
-3.05115e-07
-1.90603e-28
-5.06795e-23
-1.30248e-17
-2.21054e-12
-3.05237e-07
-2.04191e-28
-5.37412e-23
-1.3673e-17
-2.29794e-12
-3.14595e-07
-3.19677e-28
-7.65187e-23
-1.76117e-17
-2.64973e-12
-3.22317e-07
-2.98432e-28
-7.21771e-23
-1.6785e-17
-2.55074e-12
-3.13099e-07
-2.98268e-28
-7.21402e-23
-1.67773e-17
-2.54964e-12
-3.12982e-07
-2.97686e-28
-7.20148e-23
-1.67525e-17
-2.54622e-12
-3.12644e-07
-2.97715e-28
-7.20203e-23
-1.67535e-17
-2.54632e-12
-3.12654e-07
-2.9776e-28
-7.20289e-23
-1.67552e-17
-2.54648e-12
-3.12671e-07
-2.97793e-28
-7.20355e-23
-1.67565e-17
-2.54661e-12
-3.12684e-07
-2.97838e-28
-7.20442e-23
-1.67581e-17
-2.54678e-12
-3.127e-07
-2.97856e-28
-7.20477e-23
-1.67587e-17
-2.54685e-12
-3.12706e-07
-2.9787e-28
-7.20505e-23
-1.67593e-17
-2.5469e-12
-3.12711e-07
-2.9787e-28
-7.20505e-23
-1.67593e-17
-2.5469e-12
-3.12711e-07
-2.97856e-28
-7.20477e-23
-1.67587e-17
-2.54685e-12
-3.12706e-07
-2.97838e-28
-7.20442e-23
-1.67581e-17
-2.54678e-12
-3.127e-07
-2.97793e-28
-7.20355e-23
-1.67565e-17
-2.54661e-12
-3.12684e-07
-2.9776e-28
-7.20289e-23
-1.67552e-17
-2.54648e-12
-3.12671e-07
-2.97715e-28
-7.20203e-23
-1.67535e-17
-2.54632e-12
-3.12654e-07
-2.97686e-28
-7.20148e-23
-1.67525e-17
-2.54622e-12
-3.12644e-07
-2.98268e-28
-7.21402e-23
-1.67773e-17
-2.54964e-12
-3.12982e-07
-2.98432e-28
-7.21771e-23
-1.6785e-17
-2.55074e-12
-3.13099e-07
-3.19677e-28
-7.65187e-23
-1.76117e-17
-2.64973e-12
-3.22317e-07
-4.83213e-28
-1.05843e-22
-2.22016e-17
-3.01761e-12
-3.29844e-07
-4.51201e-28
-9.98711e-23
-2.11709e-17
-2.90696e-12
-3.20776e-07
-4.50963e-28
-9.98219e-23
-2.11617e-17
-2.90577e-12
-3.20664e-07
-4.50119e-28
-9.9656e-23
-2.1132e-17
-2.90207e-12
-3.20344e-07
-4.50165e-28
-9.96639e-23
-2.11333e-17
-2.90219e-12
-3.20354e-07
-4.50235e-28
-9.96764e-23
-2.11356e-17
-2.90238e-12
-3.20372e-07
-4.50286e-28
-9.96855e-23
-2.11371e-17
-2.90253e-12
-3.20385e-07
-4.50353e-28
-9.96975e-23
-2.11391e-17
-2.90272e-12
-3.20401e-07
-4.5038e-28
-9.97024e-23
-2.114e-17
-2.9028e-12
-3.20408e-07
-4.50401e-28
-9.97062e-23
-2.11406e-17
-2.90286e-12
-3.20412e-07
-4.50401e-28
-9.97062e-23
-2.11406e-17
-2.90286e-12
-3.20412e-07
-4.5038e-28
-9.97024e-23
-2.114e-17
-2.9028e-12
-3.20408e-07
-4.50353e-28
-9.96975e-23
-2.11391e-17
-2.90272e-12
-3.20401e-07
-4.50286e-28
-9.96855e-23
-2.11371e-17
-2.90253e-12
-3.20385e-07
-4.50235e-28
-9.96764e-23
-2.11356e-17
-2.90238e-12
-3.20372e-07
-4.50165e-28
-9.96639e-23
-2.11333e-17
-2.90219e-12
-3.20354e-07
-4.50119e-28
-9.9656e-23
-2.1132e-17
-2.90207e-12
-3.20344e-07
-4.50963e-28
-9.9822e-23
-2.11617e-17
-2.90577e-12
-3.20664e-07
-4.51201e-28
-9.98711e-23
-2.11709e-17
-2.90696e-12
-3.20776e-07
-4.83213e-28
-1.05843e-22
-2.22016e-17
-3.01761e-12
-3.29844e-07
-7.09314e-28
-1.42928e-22
-2.74936e-17
-3.40138e-12
-3.37084e-07
-6.6254e-28
-1.34919e-22
-2.62325e-17
-3.27903e-12
-3.28182e-07
-6.62203e-28
-1.34856e-22
-2.62215e-17
-3.27774e-12
-3.28075e-07
-6.61021e-28
-1.34642e-22
-2.61867e-17
-3.2738e-12
-3.27773e-07
-6.6109e-28
-1.34653e-22
-2.61885e-17
-3.27394e-12
-3.27784e-07
-6.61196e-28
-1.34671e-22
-2.61913e-17
-3.27416e-12
-3.27802e-07
-6.61271e-28
-1.34683e-22
-2.61933e-17
-3.27433e-12
-3.27816e-07
-6.6137e-28
-1.34699e-22
-2.61958e-17
-3.27454e-12
-3.27831e-07
-6.6141e-28
-1.34706e-22
-2.61968e-17
-3.27463e-12
-3.27838e-07
-6.61441e-28
-1.34711e-22
-2.61975e-17
-3.2747e-12
-3.27843e-07
-6.61441e-28
-1.34711e-22
-2.61975e-17
-3.2747e-12
-3.27843e-07
-6.6141e-28
-1.34706e-22
-2.61968e-17
-3.27463e-12
-3.27838e-07
-6.6137e-28
-1.34699e-22
-2.61958e-17
-3.27454e-12
-3.27831e-07
-6.61271e-28
-1.34683e-22
-2.61933e-17
-3.27433e-12
-3.27816e-07
-6.61196e-28
-1.34671e-22
-2.61913e-17
-3.27416e-12
-3.27802e-07
-6.6109e-28
-1.34653e-22
-2.61885e-17
-3.27394e-12
-3.27784e-07
-6.61021e-28
-1.34642e-22
-2.61867e-17
-3.2738e-12
-3.27773e-07
-6.62203e-28
-1.34856e-22
-2.62215e-17
-3.27774e-12
-3.28075e-07
-6.6254e-28
-1.34919e-22
-2.62325e-17
-3.27903e-12
-3.28182e-07
-7.09314e-28
-1.42928e-22
-2.74936e-17
-3.40138e-12
-3.37084e-07
-4.42704e-14
-7.1014e-16
-1.66188e-18
-4.07315e-22
3.35045e-22
3.36293e-22
3.36646e-22
3.3666e-22
3.36668e-22
3.36674e-22
3.36687e-22
3.36699e-22
3.36807e-22
3.37016e-22
3.39194e-22
3.41891e-22
3.7481e-22
3.98511e-22
1.00162e-21
1.18216e-21
-5.63095e-14
-8.98681e-16
-2.12654e-18
-6.12943e-22
3.3502e-22
3.36289e-22
3.36644e-22
3.36659e-22
3.36663e-22
3.36663e-22
3.36663e-22
3.3667e-22
3.36777e-22
3.36987e-22
3.39183e-22
3.41898e-22
3.75037e-22
3.98845e-22
1.00581e-21
1.18712e-21
-5.66e-14
-9.02732e-16
-2.13551e-18
-6.1668e-22
3.35019e-22
3.36289e-22
3.36645e-22
3.36659e-22
3.36663e-22
3.36663e-22
3.36663e-22
3.36671e-22
3.3678e-22
3.3699e-22
3.39186e-22
3.41902e-22
3.75044e-22
3.98854e-22
1.00585e-21
1.18716e-21
-5.73923e-14
-9.1399e-16
-2.16013e-18
-6.26763e-22
3.35019e-22
3.3629e-22
3.36645e-22
3.36659e-22
3.36663e-22
3.36663e-22
3.36665e-22
3.36677e-22
3.36788e-22
3.36998e-22
3.39195e-22
3.41911e-22
3.75059e-22
3.98871e-22
1.00593e-21
1.18724e-21
-5.74007e-14
-9.14069e-16
-2.16024e-18
-6.2679e-22
3.35019e-22
3.36289e-22
3.36645e-22
3.36659e-22
3.36663e-22
3.36663e-22
3.36665e-22
3.36677e-22
3.36788e-22
3.36998e-22
3.39195e-22
3.41912e-22
3.75059e-22
3.98872e-22
1.00593e-21
1.18724e-21
-5.74089e-14
-9.14135e-16
-2.16031e-18
-6.26796e-22
3.35019e-22
3.36289e-22
3.36645e-22
3.36659e-22
3.36663e-22
3.36663e-22
3.36666e-22
3.36678e-22
3.36788e-22
3.36999e-22
3.39195e-22
3.41912e-22
3.7506e-22
3.98872e-22
1.00593e-21
1.18725e-21
-5.73987e-14
-9.13974e-16
-2.15993e-18
-6.26635e-22
3.35019e-22
3.3629e-22
3.36645e-22
3.36659e-22
3.36663e-22
3.36663e-22
3.36666e-22
3.36678e-22
3.36788e-22
3.36999e-22
3.39196e-22
3.41912e-22
3.7506e-22
3.98873e-22
1.00593e-21
1.18725e-21
-5.73868e-14
-9.13795e-16
-2.15953e-18
-6.26466e-22
3.35019e-22
3.3629e-22
3.36645e-22
3.36659e-22
3.36663e-22
3.36663e-22
3.36666e-22
3.36678e-22
3.36788e-22
3.36999e-22
3.39196e-22
3.41912e-22
3.7506e-22
3.98873e-22
1.00593e-21
1.18725e-21
-5.7381e-14
-9.13708e-16
-2.15933e-18
-6.26383e-22
3.35019e-22
3.3629e-22
3.36645e-22
3.36659e-22
3.36663e-22
3.36663e-22
3.36666e-22
3.36678e-22
3.36788e-22
3.36999e-22
3.39196e-22
3.41912e-22
3.7506e-22
3.98873e-22
1.00593e-21
1.18725e-21
-5.73772e-14
-9.13652e-16
-2.1592e-18
-6.26331e-22
3.35019e-22
3.36289e-22
3.36645e-22
3.36659e-22
3.36663e-22
3.36663e-22
3.36666e-22
3.36678e-22
3.36788e-22
3.36999e-22
3.39195e-22
3.41912e-22
3.7506e-22
3.98872e-22
1.00593e-21
1.18725e-21
-5.73772e-14
-9.13652e-16
-2.1592e-18
-6.26331e-22
3.35019e-22
3.36289e-22
3.36645e-22
3.36659e-22
3.36663e-22
3.36663e-22
3.36666e-22
3.36678e-22
3.36788e-22
3.36999e-22
3.39195e-22
3.41912e-22
3.7506e-22
3.98872e-22
1.00593e-21
1.18725e-21
-5.7381e-14
-9.13708e-16
-2.15933e-18
-6.26383e-22
3.35019e-22
3.3629e-22
3.36645e-22
3.36659e-22
3.36663e-22
3.36663e-22
3.36666e-22
3.36678e-22
3.36788e-22
3.36999e-22
3.39196e-22
3.41912e-22
3.7506e-22
3.98873e-22
1.00593e-21
1.18725e-21
-5.73868e-14
-9.13795e-16
-2.15953e-18
-6.26466e-22
3.35019e-22
3.3629e-22
3.36645e-22
3.36659e-22
3.36663e-22
3.36663e-22
3.36666e-22
3.36678e-22
3.36788e-22
3.36999e-22
3.39196e-22
3.41912e-22
3.7506e-22
3.98873e-22
1.00593e-21
1.18725e-21
-5.73987e-14
-9.13974e-16
-2.15993e-18
-6.26635e-22
3.35019e-22
3.3629e-22
3.36645e-22
3.36659e-22
3.36663e-22
3.36663e-22
3.36666e-22
3.36678e-22
3.36788e-22
3.36999e-22
3.39196e-22
3.41912e-22
3.7506e-22
3.98873e-22
1.00593e-21
1.18725e-21
-5.74089e-14
-9.14135e-16
-2.16031e-18
-6.26796e-22
3.35019e-22
3.36289e-22
3.36645e-22
3.36659e-22
3.36663e-22
3.36663e-22
3.36666e-22