/*--------------------------------*- C++ -*----------------------------------*\
  =========                 |
  \\      /  F ield         | OpenFOAM: The Open Source CFD Toolbox
   \\    /   O peration     | Website:  https://openfoam.org
    \\  /    A nd           | Version:  8
     \\/     M anipulation  |
\*---------------------------------------------------------------------------*/
FoamFile
{
    version     2.0;
    format      ascii;
    class       volScalarField;
    location    "1.6";
    object      p;
}
// * * * * * * * * * * * * * * * * * * * * * * * * * * * * * * * * * * * * * //

dimensions      [0 2 -2 0 0 0 0];

internalField   nonuniform List<scalar> 
180000
(
0.001006
0.000938518
0.000984623
0.000832854
0.000916022
0.000991389
0.000924188
0.000969976
0.000819696
0.00090154
0.000990822
0.000923649
0.00096941
0.000819229
0.000901005
0.000987236
0.000920207
0.000965813
0.000816221
0.000897626
0.000986972
0.000919956
0.000965546
0.000816002
0.000897373
0.000985733
0.000918773
0.000964298
0.00081497
0.000896201
0.000985626
0.000918671
0.000964189
0.000814881
0.000896097
0.000985196
0.000918261
0.000963755
0.000814522
0.000895688
0.00098516
0.000918226
0.000963718
0.000814491
0.000895652
0.000985055
0.000918127
0.000963613
0.000814404
0.000895553
0.000985055
0.000918127
0.000963613
0.000814404
0.000895553
0.00098516
0.000918226
0.000963718
0.000814491
0.000895652
0.000985196
0.000918261
0.000963755
0.000814522
0.000895688
0.000985626
0.000918671
0.000964189
0.000814881
0.000896097
0.000985733
0.000918773
0.000964298
0.00081497
0.000896201
0.000986972
0.000919956
0.000965546
0.000816002
0.000897373
0.000987236
0.000920207
0.000965813
0.000816221
0.000897626
0.000990822
0.000923649
0.00096941
0.000819229
0.000901005
0.000991389
0.000924188
0.000969976
0.000819696
0.00090154
0.001006
0.000938518
0.000984623
0.000832854
0.000916022
0.000773852
0.0007501
0.000767324
0.000702373
0.000741603
0.000769176
0.000744455
0.000762296
0.000695743
0.000735542
0.000768991
0.000744239
0.000762098
0.000695505
0.000735314
0.000767775
0.000742816
0.000760793
0.000693929
0.000733833
0.000767686
0.000742713
0.000760697
0.000693815
0.000733723
0.00076726
0.000742218
0.000760238
0.00069327
0.000733203
0.000767223
0.000742176
0.000760198
0.000693223
0.000733158
0.000767074
0.000742003
0.000760037
0.000693033
0.000732975
0.000767062
0.000741989
0.000760023
0.000693016
0.00073296
0.000767025
0.000741947
0.000759984
0.00069297
0.000732915
0.000767025
0.000741947
0.000759984
0.00069297
0.000732915
0.000767062
0.000741989
0.000760023
0.000693016
0.00073296
0.000767074
0.000742003
0.000760037
0.000693033
0.000732975
0.000767223
0.000742176
0.000760198
0.000693223
0.000733158
0.00076726
0.000742218
0.000760238
0.00069327
0.000733203
0.000767686
0.000742713
0.000760697
0.000693815
0.000733723
0.000767775
0.000742816
0.000760793
0.000693929
0.000733833
0.000768991
0.000744239
0.000762098
0.000695505
0.000735314
0.000769176
0.000744455
0.000762296
0.000695743
0.000735542
0.000773852
0.0007501
0.000767324
0.000702373
0.000741603
0.000561368
0.000540333
0.000555908
0.000501314
0.000536367
0.000557107
0.000535629
0.000551473
0.000496272
0.000531425
0.00055694
0.000535451
0.0005513
0.000496092
0.00053124
0.000555815
0.000534241
0.00055013
0.00049486
0.000530002
0.000555734
0.000534154
0.000550044
0.000494772
0.000529911
0.00055534
0.000533734
0.000549633
0.000494346
0.000529477
0.000555307
0.000533698
0.000549597
0.00049431
0.000529439
0.000555169
0.000533551
0.000549453
0.00049416
0.000529286
0.000555157
0.000533539
0.000549441
0.000494148
0.000529273
0.000555123
0.000533503
0.000549405
0.000494111
0.000529236
0.000555123
0.000533503
0.000549405
0.000494111
0.000529236
0.000555157
0.000533539
0.000549441
0.000494148
0.000529273
0.000555169
0.000533551
0.000549453
0.00049416
0.000529286
0.000555307
0.000533698
0.000549597
0.00049431
0.000529439
0.00055534
0.000533734
0.000549633
0.000494346
0.000529477
0.000555734
0.000534154
0.000550044
0.000494772
0.000529911
0.000555815
0.000534241
0.00055013
0.00049486
0.000530002
0.00055694
0.000535451
0.0005513
0.000496092
0.00053124
0.000557107
0.000535629
0.000551473
0.000496272
0.000531425
0.000561368
0.000540333
0.000555908
0.000501314
0.000536367
0.000536628
0.000509163
0.000529403
0.000462589
0.000506976
0.000530873
0.000503321
0.000523582
0.000456935
0.000501006
0.000530648
0.000503098
0.000523355
0.000456732
0.000500781
0.000529139
0.000501595
0.000521825
0.000455339
0.000499277
0.00052903
0.000501488
0.000521714
0.00045524
0.000499168
0.000528503
0.000500967
0.000521178
0.000454758
0.000498641
0.000528459
0.000500922
0.000521132
0.000454717
0.000498595
0.000528275
0.00050074
0.000520944
0.000454548
0.00049841
0.000528259
0.000500725
0.000520928
0.000454534
0.000498394
0.000528214
0.000500681
0.000520883
0.000454492
0.000498349
0.000528214
0.000500681
0.000520883
0.000454492
0.000498349
0.000528259
0.000500725
0.000520928
0.000454534
0.000498394
0.000528275
0.00050074
0.000520944
0.000454548
0.00049841
0.000528459
0.000500922
0.000521132
0.000454717
0.000498595
0.000528503
0.000500967
0.000521178
0.000454758
0.000498641
0.00052903
0.000501488
0.000521714
0.00045524
0.000499168
0.000529139
0.000501595
0.000521825
0.000455339
0.000499277
0.000530648
0.000503098
0.000523355
0.000456732
0.000500781
0.000530873
0.000503321
0.000523582
0.000456935
0.000501006
0.000536628
0.000509163
0.000529403
0.000462589
0.000506976
0.000562374
0.000533424
0.000555121
0.000483863
0.0005342
0.00055634
0.000527281
0.000549014
0.000477911
0.000527953
0.000556101
0.000527045
0.000548772
0.000477695
0.000527715
0.000554493
0.000525438
0.000547141
0.000476203
0.000526109
0.000554377
0.000525324
0.000547023
0.000476097
0.000525992
0.000553815
0.000524766
0.00054645
0.000475581
0.000525429
0.000553767
0.000524719
0.000546401
0.000475537
0.00052538
0.00055357
0.000524524
0.0005462
0.000475355
0.000525182
0.000553554
0.000524508
0.000546183
0.00047534
0.000525165
0.000553506
0.00052446
0.000546134
0.000475296
0.000525117
0.000553506
0.00052446
0.000546134
0.000475296
0.000525117
0.000553554
0.000524508
0.000546183
0.00047534
0.000525165
0.00055357
0.000524524
0.0005462
0.000475355
0.000525182
0.000553767
0.000524719
0.000546401
0.000475537
0.00052538
0.000553815
0.000524766
0.00054645
0.000475581
0.000525429
0.000554377
0.000525324
0.000547023
0.000476097
0.000525992
0.000554493
0.000525438
0.000547141
0.000476203
0.000526109
0.000556101
0.000527045
0.000548772
0.000477695
0.000527715
0.00055634
0.000527281
0.000549014
0.000477911
0.000527953
0.000562374
0.000533424
0.000555121
0.000483863
0.0005342
0.000573981
0.000546048
0.000567505
0.00049726
0.000550855
0.000568222
0.000540123
0.000561658
0.000491439
0.000544842
0.000567992
0.000539894
0.000561425
0.000491225
0.000544609
0.000566421
0.000538309
0.000559826
0.000489734
0.000543021
0.000566308
0.000538197
0.000559711
0.000489629
0.000542905
0.000565757
0.000537645
0.000559148
0.000489111
0.000542347
0.000565711
0.000537599
0.0005591
0.000489067
0.000542299
0.000565518
0.000537405
0.000558903
0.000488885
0.000542102
0.000565502
0.00053739
0.000558886
0.00048887
0.000542085
0.000565454
0.000537342
0.000558838
0.000488826
0.000542037
0.000565454
0.000537342
0.000558838
0.000488826
0.000542037
0.000565502
0.00053739
0.000558886
0.00048887
0.000542085
0.000565518
0.000537405
0.000558903
0.000488885
0.000542102
0.000565711
0.000537599
0.0005591
0.000489067
0.000542299
0.000565757
0.000537645
0.000559148
0.000489111
0.000542347
0.000566308
0.000538197
0.000559711
0.000489629
0.000542905
0.000566421
0.000538309
0.000559826
0.000489734
0.000543021
0.000567992
0.000539894
0.000561425
0.000491225
0.000544609
0.000568222
0.000540123
0.000561658
0.000491439
0.000544842
0.000573981
0.000546048
0.000567505
0.00049726
0.000550855
0.000572765
0.000545723
0.000566994
0.000498067
0.00055484
0.000567235
0.00054002
0.000561379
0.000492439
0.000549071
0.000567013
0.000539797
0.000561153
0.000492231
0.000548845
0.000565471
0.000538239
0.000559584
0.000490757
0.000547279
0.000565361
0.000538129
0.000559472
0.000490653
0.000547166
0.000564819
0.000537585
0.000558918
0.00049014
0.000546614
0.000564773
0.000537539
0.000558871
0.000490097
0.000546566
0.000564582
0.000537348
0.000558676
0.000489916
0.000546372
0.000564567
0.000537332
0.000558659
0.000489901
0.000546355
0.00056452
0.000537286
0.000558612
0.000489857
0.000546308
0.00056452
0.000537286
0.000558612
0.000489857
0.000546308
0.000564567
0.000537332
0.000558659
0.000489901
0.000546355
0.000564582
0.000537348
0.000558676
0.000489916
0.000546372
0.000564773
0.000537539
0.000558871
0.000490097
0.000546566
0.000564819
0.000537585
0.000558918
0.00049014
0.000546614
0.000565361
0.000538129
0.000559472
0.000490653
0.000547166
0.000565471
0.000538239
0.000559584
0.000490757
0.000547279
0.000567013
0.000539797
0.000561153
0.000492231
0.000548845
0.000567235
0.00054002
0.000561379
0.000492439
0.000549071
0.000572765
0.000545723
0.000566994
0.000498067
0.00055484
0.000569733
0.00054307
0.000564486
0.000496032
0.000556236
0.000564313
0.000537491
0.00055899
0.000490535
0.000550613
0.000564094
0.000537272
0.000558768
0.000490331
0.00055039
0.000562554
0.000535718
0.000557202
0.000488861
0.000548827
0.000562445
0.000535609
0.00055709
0.000488759
0.000548715
0.000561902
0.000535065
0.000556536
0.000488246
0.000548162
0.000561857
0.00053502
0.000556489
0.000488203
0.000548115
0.000561665
0.000534828
0.000556293
0.000488022
0.00054792
0.00056165
0.000534813
0.000556277
0.000488007
0.000547903
0.000561603
0.000534766
0.000556229
0.000487963
0.000547856
0.000561603
0.000534766
0.000556229
0.000487963
0.000547856
0.00056165
0.000534813
0.000556277
0.000488007
0.000547903
0.000561665
0.000534828
0.000556293
0.000488022
0.00054792
0.000561857
0.00053502
0.000556489
0.000488203
0.000548115
0.000561902
0.000535065
0.000556536
0.000488246
0.000548162
0.000562445
0.000535609
0.00055709
0.000488759
0.000548715
0.000562554
0.000535718
0.000557202
0.000488861
0.000548827
0.000564094
0.000537272
0.000558768
0.000490331
0.00055039
0.000564313
0.000537491
0.00055899
0.000490535
0.000550613
0.000569733
0.00054307
0.000564486
0.000496032
0.000556236
0.000568315
0.000541884
0.000563537
0.000495297
0.000558575
0.000562975
0.000536396
0.000558126
0.000489898
0.000553057
0.000562757
0.000536179
0.000557906
0.000489695
0.000552836
0.000561212
0.000534623
0.000556337
0.000488224
0.000551267
0.000561104
0.000534514
0.000556225
0.000488122
0.000551155
0.000560557
0.000533967
0.000555668
0.000487606
0.0005506
0.000560512
0.000533922
0.000555621
0.000487564
0.000550553
0.000560319
0.00053373
0.000555424
0.000487382
0.000550356
0.000560304
0.000533714
0.000555408
0.000487367
0.00055034
0.000560257
0.000533667
0.00055536
0.000487322
0.000550292
0.000560257
0.000533667
0.00055536
0.000487322
0.000550292
0.000560304
0.000533714
0.000555408
0.000487367
0.00055034
0.000560319
0.00053373
0.000555424
0.000487382
0.000550356
0.000560512
0.000533922
0.000555621
0.000487564
0.000550553
0.000560557
0.000533967
0.000555668
0.000487606
0.0005506
0.000561104
0.000534514
0.000556225
0.000488122
0.000551155
0.000561212
0.000534623
0.000556337
0.000488224
0.000551267
0.000562757
0.000536179
0.000557906
0.000489695
0.000552836
0.000562975
0.000536396
0.000558126
0.000489898
0.000553057
0.000568315
0.000541884
0.000563537
0.000495297
0.000558575
0.000567776
0.000541612
0.000563466
0.000495572
0.000561177
0.000562524
0.00053622
0.00055815
0.000490268
0.000555753
0.000562308
0.000536005
0.000557932
0.000490068
0.000555534
0.000560762
0.000534448
0.000556362
0.000488595
0.000553961
0.000560654
0.00053434
0.000556251
0.000488493
0.00055385
0.000560105
0.000533792
0.000555692
0.000487976
0.000553291
0.00056006
0.000533747
0.000555645
0.000487933
0.000553244
0.000559866
0.000533553
0.000555447
0.00048775
0.000553046
0.000559851
0.000533538
0.000555431
0.000487735
0.000553029
0.000559803
0.00053349
0.000555382
0.00048769
0.000552981
0.000559803
0.00053349
0.000555382
0.00048769
0.000552981
0.000559851
0.000533538
0.000555431
0.000487735
0.000553029
0.000559866
0.000533553
0.000555447
0.00048775
0.000553046
0.00056006
0.000533747
0.000555645
0.000487933
0.000553244
0.000560105
0.000533792
0.000555692
0.000487976
0.000553291
0.000560654
0.00053434
0.000556251
0.000488493
0.00055385
0.000560762
0.000534448
0.000556362
0.000488595
0.000553961
0.000562308
0.000536005
0.000557932
0.000490068
0.000555534
0.000562524
0.00053622
0.00055815
0.000490268
0.000555753
0.000567776
0.000541612
0.000563466
0.000495572
0.000561177
0.00056727
0.000541404
0.000563426
0.000496021
0.000562911
0.000562113
0.000536113
0.00055821
0.000490815
0.000557568
0.000561901
0.000535902
0.000557995
0.000490617
0.00055735
0.000560355
0.000534346
0.000556426
0.000489143
0.000555773
0.000560248
0.000534239
0.000556316
0.000489042
0.000555661
0.000559698
0.000533689
0.000555756
0.000488523
0.000555099
0.000559653
0.000533644
0.000555709
0.00048848
0.000555052
0.000559458
0.00053345
0.000555511
0.000488297
0.000554853
0.000559443
0.000533435
0.000555494
0.000488282
0.000554837
0.000559395
0.000533387
0.000555446
0.000488237
0.000554788
0.000559395
0.000533387
0.000555446
0.000488237
0.000554788
0.000559443
0.000533435
0.000555494
0.000488282
0.000554837
0.000559458
0.00053345
0.000555511
0.000488297
0.000554853
0.000559653
0.000533644
0.000555709
0.00048848
0.000555052
0.000559698
0.000533689
0.000555756
0.000488523
0.000555099
0.000560248
0.000534239
0.000556316
0.000489042
0.000555661
0.000560355
0.000534346
0.000556426
0.000489143
0.000555773
0.000561901
0.000535902
0.000557995
0.000490617
0.00055735
0.000562113
0.000536113
0.00055821
0.000490815
0.000557568
0.00056727
0.000541404
0.000563426
0.000496021
0.000562911
0.000566641
0.000541069
0.000563245
0.000496354
0.000561403
0.000561578
0.000535878
0.000558129
0.000491244
0.00055615
0.000561368
0.000535669
0.000557916
0.000491049
0.000555935
0.000559824
0.000534116
0.00055635
0.000489575
0.00055436
0.000559717
0.000534009
0.00055624
0.000489475
0.000554249
0.000559166
0.000533459
0.000555679
0.000488954
0.000553686
0.000559121
0.000533414
0.000555633
0.000488912
0.000553639
0.000558926
0.000533219
0.000555433
0.000488727
0.000553439
0.000558911
0.000533204
0.000555417
0.000488712
0.000553423
0.000558862
0.000533156
0.000555368
0.000488667
0.000553373
0.000558862
0.000533156
0.000555368
0.000488667
0.000553373
0.000558911
0.000533204
0.000555417
0.000488712
0.000553423
0.000558926
0.000533219
0.000555433
0.000488727
0.000553439
0.000559121
0.000533414
0.000555633
0.000488912
0.000553639
0.000559166
0.000533459
0.000555679
0.000488954
0.000553686
0.000559717
0.000534009
0.00055624
0.000489475
0.000554249
0.000559824
0.000534116
0.00055635
0.000489575
0.00055436
0.000561368
0.000535669
0.000557916
0.000491049
0.000555935
0.000561578
0.000535878
0.000558129
0.000491244
0.00055615
0.000566641
0.000541069
0.000563245
0.000496354
0.000561403
0.00056598
0.000540687
0.000563014
0.000496549
0.000558975
0.000561009
0.000535594
0.000557993
0.000491535
0.000553815
0.000560801
0.000535388
0.000557784
0.000491342
0.000553603
0.000559259
0.000533836
0.00055622
0.000489869
0.000552031
0.000559152
0.000533731
0.000556111
0.000489769
0.000551921
0.0005586
0.000533179
0.000555548
0.000489247
0.000551358
0.000558556
0.000533135
0.000555502
0.000489205
0.000551311
0.00055836
0.000532939
0.000555302
0.00048902
0.00055111
0.000558344
0.000532924
0.000555286
0.000489005
0.000551094
0.000558296
0.000532876
0.000555237
0.000488959
0.000551045
0.000558296
0.000532876
0.000555237
0.000488959
0.000551045
0.000558344
0.000532924
0.000555286
0.000489005
0.000551094
0.00055836
0.000532939
0.000555302
0.00048902
0.00055111
0.000558556
0.000533135
0.000555502
0.000489205
0.000551311
0.0005586
0.000533179
0.000555548
0.000489247
0.000551358
0.000559152
0.000533731
0.000556111
0.000489769
0.000551921
0.000559259
0.000533836
0.00055622
0.000489869
0.000552031
0.000560801
0.000535388
0.000557784
0.000491342
0.000553603
0.000561009
0.000535594
0.000557993
0.000491535
0.000553815
0.00056598
0.000540687
0.000563014
0.000496549
0.000558975
0.000565347
0.000540323
0.000562793
0.000496656
0.000556821
0.000560464
0.000535323
0.000557866
0.000491735
0.000551752
0.000560259
0.00053512
0.000557659
0.000491544
0.000551543
0.000558718
0.000533571
0.000556098
0.000490073
0.000549975
0.000558613
0.000533466
0.000555989
0.000489973
0.000549866
0.000558059
0.000532914
0.000555426
0.00048945
0.000549301
0.000558015
0.000532869
0.00055538
0.000489408
0.000549255
0.000557818
0.000532673
0.000555179
0.000489222
0.000549054
0.000557803
0.000532658
0.000555163
0.000489207
0.000549037
0.000557754
0.000532609
0.000555114
0.000489161
0.000548988
0.000557754
0.000532609
0.000555114
0.000489161
0.000548988
0.000557803
0.000532658
0.000555163
0.000489207
0.000549037
0.000557818
0.000532673
0.000555179
0.000489222
0.000549054
0.000558015
0.000532869
0.00055538
0.000489408
0.000549255
0.000558059
0.000532914
0.000555426
0.00048945
0.000549301
0.000558613
0.000533466
0.000555989
0.000489973
0.000549866
0.000558718
0.000533571
0.000556098
0.000490073
0.000549975
0.000560259
0.00053512
0.000557659
0.000491544
0.000551543
0.000560464
0.000535323
0.000557866
0.000491735
0.000551752
0.000565347
0.000540323
0.000562793
0.000496656
0.000556821
0.000564744
0.000539981
0.000562589
0.000496695
0.000554942
0.000559948
0.000535073
0.000557754
0.000491865
0.00054996
0.000559745
0.000534872
0.000557549
0.000491677
0.000549754
0.000558207
0.000533326
0.000555991
0.000490207
0.00054819
0.000558102
0.000533222
0.000555883
0.000490109
0.000548082
0.000557548
0.000532669
0.000555319
0.000489585
0.000547517
0.000557503
0.000532625
0.000555273
0.000489543
0.000547471
0.000557306
0.000532428
0.000555072
0.000489356
0.000547269
0.00055729
0.000532413
0.000555056
0.000489341
0.000547253
0.000557242
0.000532364
0.000555006
0.000489295
0.000547203
0.000557242
0.000532364
0.000555006
0.000489295
0.000547203
0.00055729
0.000532413
0.000555056
0.000489341
0.000547253
0.000557306
0.000532428
0.000555072
0.000489356
0.000547269
0.000557503
0.000532625
0.000555273
0.000489543
0.000547471
0.000557548
0.000532669
0.000555319
0.000489585
0.000547517
0.000558102
0.000533222
0.000555883
0.000490109
0.000548082
0.000558207
0.000533326
0.000555991
0.000490207
0.00054819
0.000559745
0.000534872
0.000557549
0.000491677
0.000549754
0.000559948
0.000535073
0.000557754
0.000491865
0.00054996
0.000564744
0.000539981
0.000562589
0.000496695
0.000554942
0.000564163
0.000539653
0.000562395
0.000496666
0.000553128
0.000559451
0.000534835
0.000557649
0.000491926
0.000548232
0.000559251
0.000534637
0.000557447
0.00049174
0.000548028
0.000557715
0.000533094
0.000555891
0.000490274
0.000546469
0.000557611
0.00053299
0.000555785
0.000490176
0.000546361
0.000557056
0.000532437
0.00055522
0.000489651
0.000545796
0.000557012
0.000532393
0.000555174
0.000489609
0.00054575
0.000556813
0.000532195
0.000554972
0.000489422
0.000545548
0.000556798
0.00053218
0.000554956
0.000489407
0.000545531
0.000556749
0.000532131
0.000554906
0.000489361
0.000545481
0.000556749
0.000532131
0.000554906
0.000489361
0.000545481
0.000556798
0.00053218
0.000554956
0.000489407
0.000545531
0.000556813
0.000532195
0.000554972
0.000489422
0.000545548
0.000557012
0.000532393
0.000555174
0.000489609
0.00054575
0.000557056
0.000532437
0.00055522
0.000489651
0.000545796
0.000557611
0.00053299
0.000555785
0.000490176
0.000546361
0.000557715
0.000533094
0.000555891
0.000490274
0.000546469
0.000559251
0.000534637
0.000557447
0.00049174
0.000548028
0.000559451
0.000534835
0.000557649
0.000491926
0.000548232
0.000564163
0.000539653
0.000562395
0.000496666
0.000553128
0.000563598
0.000539335
0.000562207
0.000496567
0.000551308
0.00055897
0.000534605
0.000557548
0.000491916
0.000546495
0.000558772
0.000534409
0.000557349
0.000491732
0.000546294
0.000557239
0.00053287
0.000555797
0.000490269
0.00054474
0.000557136
0.000532767
0.000555691
0.000490171
0.000544633
0.00055658
0.000532213
0.000555125
0.000489646
0.000544067
0.000556536
0.000532169
0.00055508
0.000489604
0.000544021
0.000556337
0.000531971
0.000554877
0.000489417
0.000543819
0.000556322
0.000531956
0.000554861
0.000489402
0.000543802
0.000556272
0.000531907
0.000554811
0.000489355
0.000543752
0.000556272
0.000531907
0.000554811
0.000489355
0.000543752
0.000556322
0.000531956
0.000554861
0.000489402
0.000543802
0.000556337
0.000531971
0.000554877
0.000489417
0.000543819
0.000556536
0.000532169
0.00055508
0.000489604
0.000544021
0.00055658
0.000532213
0.000555125
0.000489646
0.000544067
0.000557136
0.000532767
0.000555691
0.000490171
0.000544633
0.000557239
0.00053287
0.000555797
0.000490269
0.00054474
0.000558772
0.000534409
0.000557349
0.000491732
0.000546294
0.00055897
0.000534605
0.000557548
0.000491916
0.000546495
0.000563598
0.000539335
0.000562207
0.000496567
0.000551308
0.000563051
0.000539027
0.000562027
0.000496399
0.000549495
0.000558503
0.000534383
0.000557454
0.000491835
0.000544763
0.000558308
0.00053419
0.000557258
0.000491653
0.000544565
0.000556779
0.000532654
0.000555709
0.000490193
0.000543015
0.000556676
0.000532552
0.000555604
0.000490097
0.000542909
0.000556119
0.000531997
0.000555038
0.000489571
0.000542343
0.000556075
0.000531954
0.000554993
0.000489529
0.000542298
0.000555876
0.000531755
0.000554789
0.000489341
0.000542094
0.000555861
0.00053174
0.000554773
0.000489327
0.000542078
0.000555811
0.000531691
0.000554723
0.00048928
0.000542028
0.000555811
0.000531691
0.000554723
0.00048928
0.000542028
0.000555861
0.00053174
0.000554773
0.000489327
0.000542078
0.000555876
0.000531755
0.000554789
0.000489341
0.000542094
0.000556075
0.000531954
0.000554993
0.000489529
0.000542298
0.000556119
0.000531997
0.000555038
0.000489571
0.000542343
0.000556676
0.000532552
0.000555604
0.000490097
0.000542909
0.000556779
0.000532654
0.000555709
0.000490193
0.000543015
0.000558308
0.00053419
0.000557258
0.000491653
0.000544565
0.000558503
0.000534383
0.000557454
0.000491835
0.000544763
0.000563051
0.000539027
0.000562027
0.000496399
0.000549495
0.000562521
0.00053873
0.000561857
0.000496161
0.000547703
0.000558053
0.00053417
0.000557368
0.000491683
0.00054305
0.00055786
0.000533979
0.000557174
0.000491504
0.000542854
0.000556334
0.000532448
0.00055563
0.000490048
0.00054131
0.000556232
0.000532346
0.000555525
0.000489953
0.000541205
0.000555675
0.000531791
0.000554958
0.000489426
0.000540639
0.000555631
0.000531748
0.000554913
0.000489385
0.000540594
0.000555431
0.000531549
0.00055471
0.000489196
0.00054039
0.000555416
0.000531534
0.000554694
0.000489182
0.000540374
0.000555366
0.000531484
0.000554643
0.000489135
0.000540323
0.000555366
0.000531484
0.000554643
0.000489135
0.000540323
0.000555416
0.000531534
0.000554694
0.000489182
0.000540374
0.000555431
0.000531549
0.00055471
0.000489196
0.00054039
0.000555631
0.000531748
0.000554913
0.000489385
0.000540594
0.000555675
0.000531791
0.000554958
0.000489426
0.000540639
0.000556232
0.000532346
0.000555525
0.000489953
0.000541205
0.000556334
0.000532448
0.00055563
0.000490048
0.00054131
0.00055786
0.000533979
0.000557174
0.000491504
0.000542854
0.000558053
0.00053417
0.000557368
0.000491683
0.00054305
0.000562521
0.00053873
0.000561857
0.000496161
0.000547703
0.000562008
0.000538444
0.000561698
0.000495856
0.000545855
0.000557617
0.000533966
0.000557291
0.000491463
0.00054128
0.000557427
0.000533777
0.0005571
0.000491286
0.000541087
0.000555905
0.00053225
0.00055556
0.000489835
0.00053955
0.000555803
0.00053215
0.000555456
0.00048974
0.000539445
0.000555246
0.000531594
0.000554889
0.000489213
0.000538879
0.000555202
0.000531551
0.000554844
0.000489172
0.000538834
0.000555002
0.000531351
0.00055464
0.000488983
0.00053863
0.000554987
0.000531336
0.000554624
0.000488969
0.000538614
0.000554937
0.000531287
0.000554573
0.000488922
0.000538563
0.000554937
0.000531287
0.000554573
0.000488922
0.000538563
0.000554987
0.000531336
0.000554624
0.000488969
0.000538614
0.000555002
0.000531351
0.00055464
0.000488983
0.00053863
0.000555202
0.000531551
0.000554844
0.000489172
0.000538834
0.000555246
0.000531594
0.000554889
0.000489213
0.000538879
0.000555803
0.00053215
0.000555456
0.00048974
0.000539445
0.000555905
0.00053225
0.00055556
0.000489835
0.00053955
0.000557427
0.000533777
0.0005571
0.000491286
0.000541087
0.000557617
0.000533966
0.000557291
0.000491463
0.00054128
0.000562008
0.000538444
0.000561698
0.000495856
0.000545855
-1.76466e-05
1.72938e-05
3.641e-06
8.48468e-07
2.88136e-07
1.87661e-07
1.6703e-07
1.62856e-07
1.61899e-07
1.61682e-07
1.61621e-07
1.61595e-07
1.61497e-07
1.61387e-07
1.60521e-07
1.59854e-07
1.53418e-07
1.50647e-07
1.11918e-07
1.07813e-07
-1.77831e-05
1.72827e-05
3.68e-06
8.59734e-07
2.90764e-07
1.88266e-07
1.67154e-07
1.62871e-07
1.61887e-07
1.61663e-07
1.61599e-07
1.61573e-07
1.61473e-07
1.61361e-07
1.60481e-07
1.59806e-07
1.53299e-07
1.50521e-07
1.11618e-07
1.07601e-07
-1.77822e-05
1.72772e-05
3.6789e-06
8.597e-07
2.90784e-07
1.88276e-07
1.67157e-07
1.62872e-07
1.61887e-07
1.61663e-07
1.61599e-07
1.61572e-07
1.61472e-07
1.61361e-07
1.6048e-07
1.59805e-07
1.53297e-07
1.50519e-07
1.11615e-07
1.07599e-07
-1.77772e-05
1.7241e-05
3.6703e-06
8.58901e-07
2.90754e-07
1.88298e-07
1.67166e-07
1.62874e-07
1.61887e-07
1.61662e-07
1.61598e-07
1.61571e-07
1.61471e-07
1.61359e-07
1.60477e-07
1.59802e-07
1.53289e-07
1.50512e-07
1.11603e-07
1.07593e-07
-1.77763e-05
1.72377e-05
3.66934e-06
8.58767e-07
2.90734e-07
1.88296e-07
1.67166e-07
1.62874e-07
1.61887e-07
1.61662e-07
1.61598e-07
1.61571e-07
1.61471e-07
1.61359e-07
1.60477e-07
1.59802e-07
1.53289e-07
1.50512e-07
1.11603e-07
1.07593e-07
-1.77732e-05
1.72246e-05
3.6656e-06
8.58255e-07
2.90652e-07
1.88286e-07
1.67165e-07
1.62874e-07
1.61887e-07
1.61662e-07
1.61598e-07
1.61571e-07
1.61471e-07
1.61359e-07
1.60477e-07
1.59801e-07
1.53289e-07
1.50512e-07
1.11602e-07
1.07592e-07
-1.77729e-05
1.72233e-05
3.66522e-06
8.58199e-07
2.90642e-07
1.88285e-07
1.67164e-07
1.62874e-07
1.61887e-07
1.61662e-07
1.61598e-07
1.61571e-07
1.61471e-07
1.61359e-07
1.60477e-07
1.59801e-07
1.53289e-07
1.50512e-07
1.11602e-07
1.07592e-07
-1.7772e-05
1.72189e-05
3.66403e-06
8.58036e-07
2.90614e-07
1.88281e-07
1.67164e-07
1.62874e-07
1.61887e-07
1.61662e-07
1.61598e-07
1.61571e-07
1.61471e-07
1.61359e-07
1.60477e-07
1.59801e-07
1.53289e-07
1.50512e-07
1.11602e-07
1.07592e-07
-1.77719e-05
1.72185e-05
3.66392e-06
8.58019e-07
2.90611e-07
1.8828e-07
1.67164e-07
1.62874e-07
1.61887e-07
1.61662e-07
1.61598e-07
1.61571e-07
1.61471e-07
1.61359e-07
1.60477e-07
1.59801e-07
1.53289e-07
1.50512e-07
1.11602e-07
1.07592e-07
-1.77718e-05
1.72175e-05
3.66366e-06
8.57984e-07
2.90605e-07
1.8828e-07
1.67163e-07
1.62874e-07
1.61887e-07
1.61662e-07
1.61598e-07
1.61571e-07
1.61471e-07
1.61359e-07
1.60477e-07
1.59801e-07
1.53289e-07
1.50512e-07
1.11602e-07
1.07592e-07
-1.77718e-05
1.72175e-05
3.66366e-06
8.57984e-07
2.90605e-07
1.8828e-07
1.67163e-07
1.62874e-07
1.61887e-07
1.61662e-07
1.61598e-07
1.61571e-07
1.61471e-07
1.61359e-07
1.60477e-07
1.59801e-07
1.53289e-07
1.50512e-07
1.11602e-07
1.07592e-07
-1.77719e-05
1.72185e-05
3.66392e-06
8.58019e-07
2.90611e-07
1.8828e-07
1.67164e-07
1.62874e-07
1.61887e-07
1.61662e-07
1.61598e-07
1.61571e-07
1.61471e-07
1.61359e-07
1.60477e-07
1.59801e-07
1.53289e-07
1.50512e-07
1.11602e-07
1.07592e-07
-1.7772e-05
1.72189e-05
3.66403e-06
8.58036e-07
2.90614e-07
1.88281e-07
1.67164e-07
1.62874e-07
1.61887e-07
1.61662e-07
1.61598e-07
1.61571e-07
1.61471e-07
1.61359e-07
1.60477e-07
1.59801e-07
1.53289e-07
1.50512e-07
1.11602e-07
1.07592e-07
-1.77729e-05
1.72233e-05
3.66522e-06
8.58199e-07
2.90642e-07
1.88285e-07
1.67164e-07
1.62874e-07
1.61887e-07
1.61662e-07
1.61598e-07
1.61571e-07
1.61471e-07
1.61359e-07
1.60477e-07
1.59801e-07
1.53289e-07
1.50512e-07
1.11602e-07
1.07592e-07
-1.77732e-05
1.72246e-05
3.6656e-06
8.58255e-07
2.90652e-07
1.88286e-07
1.67165e-07
1.62874e-07
1.61887e-07
1.61662e-07
1.61598e-07
1.61571e-07
1.61471e-07
1.61359e-07
1.60477e-07
1.59801e-07
1.53289e-07
1.50512e-07
1.11602e-07
1.07592e-07
-1.77763e-05
1.72377e-05
3.66934e-06
8.58767e-07
2.90734e-07
1.88296e-07
1.67166e-07
1.62874e-07
1.61887e-07
1.61662e-07
1.61598e-07
1.61571e-07
1.61471e-07
1.61359e-07
1.60477e-07
1.59802e-07
1.53289e-07
1.50512e-07
1.11603e-07
1.07593e-07
-1.77772e-05
1.7241e-05
3.6703e-06
8.58901e-07
2.90754e-07
1.88298e-07
1.67166e-07
1.62874e-07
1.61887e-07
1.61662e-07
1.61598e-07
1.61571e-07
1.61471e-07
1.61359e-07
1.60477e-07
1.59802e-07
1.53289e-07
1.50512e-07
1.11603e-07
1.07593e-07
-1.77822e-05
1.72772e-05
3.6789e-06
8.597e-07
2.90784e-07
1.88276e-07
1.67157e-07
1.62872e-07
1.61887e-07
1.61663e-07
1.61599e-07
1.61572e-07
1.61472e-07
1.61361e-07
1.6048e-07
1.59805e-07
1.53297e-07
1.50519e-07
1.11615e-07
1.07599e-07
-1.77831e-05
1.72827e-05
3.68e-06
8.59734e-07
2.90764e-07
1.88266e-07
1.67154e-07
1.62871e-07
1.61887e-07
1.61663e-07
1.61599e-07
1.61573e-07
1.61473e-07
1.61361e-07
1.60481e-07
1.59806e-07
1.53299e-07
1.50521e-07
1.11618e-07
1.07601e-07
-1.76466e-05
1.72938e-05
3.641e-06
8.48468e-07
2.88136e-07
1.87661e-07
1.6703e-07
1.62856e-07
1.61899e-07
1.61682e-07
1.61621e-07
1.61595e-07
1.61497e-07
1.61387e-07
1.60521e-07
1.59854e-07
1.53418e-07
1.50647e-07
1.11918e-07
1.07813e-07
-1.72963e-05
1.74814e-05
3.67454e-06
8.55388e-07
2.89493e-07
1.87945e-07
1.6709e-07
1.62925e-07
1.61992e-07
1.61771e-07
1.61709e-07
1.61682e-07
1.61583e-07
1.61472e-07
1.60567e-07
1.59836e-07
1.53336e-07
1.5054e-07
1.11323e-07
1.0719e-07
-1.74257e-05
1.74706e-05
3.71397e-06
8.66773e-07
2.92152e-07
1.88557e-07
1.67217e-07
1.62938e-07
1.61979e-07
1.61752e-07
1.61688e-07
1.61661e-07
1.61559e-07
1.61446e-07
1.60524e-07
1.59787e-07
1.53215e-07
1.50412e-07
1.11019e-07
1.06973e-07
-1.74245e-05
1.7465e-05
3.71285e-06
8.66739e-07
2.92172e-07
1.88568e-07
1.6722e-07
1.62939e-07
1.61979e-07
1.61752e-07
1.61687e-07
1.6166e-07
1.61559e-07
1.61445e-07
1.60524e-07
1.59786e-07
1.53214e-07
1.50411e-07
1.11016e-07
1.06971e-07
-1.74184e-05
1.74284e-05
3.70418e-06