/*--------------------------------*- C++ -*----------------------------------*\
  =========                 |
  \\      /  F ield         | OpenFOAM: The Open Source CFD Toolbox
   \\    /   O peration     | Website:  https://openfoam.org
    \\  /    A nd           | Version:  8
     \\/     M anipulation  |
\*---------------------------------------------------------------------------*/
FoamFile
{
    version     2.0;
    format      ascii;
    class       volScalarField;
    location    "1.6";
    object      S1;
}
// * * * * * * * * * * * * * * * * * * * * * * * * * * * * * * * * * * * * * //

dimensions      [0 1 -1 0 0 0 0];

internalField   nonuniform List<scalar> 
180000
(
-2.65887e-30
-1.7309e-25
-1.01313e-20
-5.19478e-16
-2.28498e-11
-3.00047e-30
-1.93982e-25
-1.12613e-20
-5.71562e-16
-2.48031e-11
-3.01037e-30
-1.94586e-25
-1.12938e-20
-5.73049e-16
-2.48584e-11
-3.04396e-30
-1.96658e-25
-1.14066e-20
-5.78282e-16
-2.50551e-11
-3.04523e-30
-1.96738e-25
-1.1411e-20
-5.78487e-16
-2.50627e-11
-3.04809e-30
-1.96921e-25
-1.14214e-20
-5.78987e-16
-2.5082e-11
-3.04823e-30
-1.96931e-25
-1.1422e-20
-5.7902e-16
-2.50834e-11
-3.04855e-30
-1.96954e-25
-1.14235e-20
-5.791e-16
-2.50868e-11
-3.04854e-30
-1.96955e-25
-1.14236e-20
-5.79105e-16
-2.50872e-11
-3.04857e-30
-1.96957e-25
-1.14238e-20
-5.79118e-16
-2.50878e-11
-3.04857e-30
-1.96957e-25
-1.14238e-20
-5.79118e-16
-2.50878e-11
-3.04854e-30
-1.96955e-25
-1.14236e-20
-5.79105e-16
-2.50872e-11
-3.04855e-30
-1.96954e-25
-1.14235e-20
-5.791e-16
-2.50868e-11
-3.04823e-30
-1.96931e-25
-1.1422e-20
-5.7902e-16
-2.50834e-11
-3.04809e-30
-1.96921e-25
-1.14214e-20
-5.78987e-16
-2.5082e-11
-3.04523e-30
-1.96738e-25
-1.1411e-20
-5.78487e-16
-2.50627e-11
-3.04396e-30
-1.96658e-25
-1.14066e-20
-5.78282e-16
-2.50551e-11
-3.01037e-30
-1.94586e-25
-1.12938e-20
-5.73049e-16
-2.48584e-11
-3.00047e-30
-1.93982e-25
-1.12613e-20
-5.71562e-16
-2.48031e-11
-2.65887e-30
-1.7309e-25
-1.01313e-20
-5.19478e-16
-2.28498e-11
-2.65865e-30
-1.73081e-25
-1.01367e-20
-5.29373e-16
-3.91915e-11
-3.00021e-30
-1.93971e-25
-1.12665e-20
-5.81435e-16
-4.12389e-11
-3.01011e-30
-1.94574e-25
-1.1299e-20
-5.8292e-16
-4.12962e-11
-3.0437e-30
-1.96646e-25
-1.14118e-20
-5.8813e-16
-4.14863e-11
-3.04498e-30
-1.96726e-25
-1.14162e-20
-5.88333e-16
-4.14928e-11
-3.04784e-30
-1.9691e-25
-1.14266e-20
-5.88821e-16
-4.15027e-11
-3.04797e-30
-1.9692e-25
-1.14272e-20
-5.88853e-16
-4.15035e-11
-3.04829e-30
-1.96943e-25
-1.14286e-20
-5.88928e-16
-4.15034e-11
-3.04829e-30
-1.96943e-25
-1.14287e-20
-5.88933e-16
-4.15036e-11
-3.04831e-30
-1.96946e-25
-1.14289e-20
-5.88946e-16
-4.15034e-11
-3.04831e-30
-1.96946e-25
-1.14289e-20
-5.88945e-16
-4.15034e-11
-3.04829e-30
-1.96943e-25
-1.14287e-20
-5.88933e-16
-4.15036e-11
-3.04829e-30
-1.96943e-25
-1.14286e-20
-5.88928e-16
-4.15034e-11
-3.04797e-30
-1.9692e-25
-1.14272e-20
-5.88853e-16
-4.15035e-11
-3.04784e-30
-1.9691e-25
-1.14266e-20
-5.88821e-16
-4.15027e-11
-3.04498e-30
-1.96726e-25
-1.14162e-20
-5.88333e-16
-4.14928e-11
-3.0437e-30
-1.96646e-25
-1.14118e-20
-5.8813e-16
-4.14863e-11
-3.01011e-30
-1.94574e-25
-1.1299e-20
-5.8292e-16
-4.12962e-11
-3.00022e-30
-1.93971e-25
-1.12665e-20
-5.81435e-16
-4.12389e-11
-2.65865e-30
-1.73081e-25
-1.01367e-20
-5.29373e-16
-3.91915e-11
-2.65849e-30
-1.73108e-25
-1.0197e-20
-6.10234e-16
-1.54431e-10
-3.00003e-30
-1.93992e-25
-1.13208e-20
-6.54368e-16
-1.4405e-10
-3.00993e-30
-1.94595e-25
-1.13531e-20
-6.55689e-16
-1.43861e-10
-3.04351e-30
-1.96666e-25
-1.14653e-20
-6.60158e-16
-1.4304e-10
-3.04479e-30
-1.96746e-25
-1.14696e-20
-6.60336e-16
-1.43023e-10
-3.04765e-30
-1.9693e-25
-1.14799e-20
-6.60709e-16
-1.4293e-10
-3.04778e-30
-1.9694e-25
-1.14805e-20
-6.60736e-16
-1.42931e-10
-3.0481e-30
-1.96963e-25
-1.14819e-20
-6.60781e-16
-1.42911e-10
-3.0481e-30
-1.96963e-25
-1.1482e-20
-6.60785e-16
-1.42913e-10
-3.04812e-30
-1.96966e-25
-1.14822e-20
-6.6079e-16
-1.42908e-10
-3.04812e-30
-1.96966e-25
-1.14822e-20
-6.6079e-16
-1.42908e-10
-3.0481e-30
-1.96963e-25
-1.1482e-20
-6.60785e-16
-1.42913e-10
-3.0481e-30
-1.96963e-25
-1.14819e-20
-6.60781e-16
-1.42911e-10
-3.04778e-30
-1.9694e-25
-1.14805e-20
-6.60736e-16
-1.42931e-10
-3.04765e-30
-1.9693e-25
-1.14799e-20
-6.60709e-16
-1.4293e-10
-3.04479e-30
-1.96746e-25
-1.14696e-20
-6.60336e-16
-1.43023e-10
-3.04351e-30
-1.96666e-25
-1.14653e-20
-6.60158e-16
-1.4304e-10
-3.00993e-30
-1.94595e-25
-1.13531e-20
-6.55689e-16
-1.43861e-10
-3.00003e-30
-1.93992e-25
-1.13208e-20
-6.54368e-16
-1.4405e-10
-2.65849e-30
-1.73108e-25
-1.0197e-20
-6.10234e-16
-1.54431e-10
-2.65838e-30
-1.73171e-25
-1.02535e-20
-5.90781e-16
3.08779e-11
-2.99986e-30
-1.94004e-25
-1.13094e-20
-5.40981e-16
1.87203e-10
-3.00976e-30
-1.94606e-25
-1.13405e-20
-5.40612e-16
1.9003e-10
-3.04334e-30
-1.96674e-25
-1.14479e-20
-5.38575e-16
2.0109e-10
-3.04462e-30
-1.96753e-25
-1.14522e-20
-5.38669e-16
2.01243e-10
-3.04748e-30
-1.96936e-25
-1.14622e-20
-5.38877e-16
2.01601e-10
-3.04761e-30
-1.96946e-25
-1.14628e-20
-5.38941e-16
2.01544e-10
-3.04793e-30
-1.96969e-25
-1.14643e-20
-5.39054e-16
2.01459e-10
-3.04793e-30
-1.9697e-25
-1.14643e-20
-5.39079e-16
2.01427e-10
-3.04795e-30
-1.96972e-25
-1.14645e-20
-5.39107e-16
2.01397e-10
-3.04795e-30
-1.96972e-25
-1.14645e-20
-5.39107e-16
2.01397e-10
-3.04793e-30
-1.9697e-25
-1.14643e-20
-5.39079e-16
2.01427e-10
-3.04793e-30
-1.96969e-25
-1.14643e-20
-5.39054e-16
2.01459e-10
-3.04761e-30
-1.96946e-25
-1.14628e-20
-5.38941e-16
2.01544e-10
-3.04748e-30
-1.96936e-25
-1.14622e-20
-5.38877e-16
2.016e-10
-3.04462e-30
-1.96753e-25
-1.14522e-20
-5.38669e-16
2.01243e-10
-3.04334e-30
-1.96674e-25
-1.14479e-20
-5.38575e-16
2.0109e-10
-3.00976e-30
-1.94606e-25
-1.13405e-20
-5.40612e-16
1.9003e-10
-2.99986e-30
-1.94004e-25
-1.13094e-20
-5.40981e-16
1.87203e-10
-2.65838e-30
-1.73171e-25
-1.02535e-20
-5.90781e-16
3.08779e-11
-2.65763e-30
-1.72159e-25
-8.55342e-21
2.09217e-15
4.51405e-09
-2.99886e-30
-1.92717e-25
-9.24539e-21
2.61689e-15
5.34462e-09
-3.00877e-30
-1.93315e-25
-9.27099e-21
2.6249e-15
5.35876e-09
-3.04233e-30
-1.9537e-25
-9.36086e-21
2.65377e-15
5.41321e-09
-3.04361e-30
-1.9545e-25
-9.36553e-21
2.65354e-15
5.41365e-09
-3.04647e-30
-1.95636e-25
-9.37853e-21
2.65117e-15
5.4133e-09
-3.04661e-30
-1.95646e-25
-9.3796e-21
2.65067e-15
5.41284e-09
-3.04692e-30
-1.95671e-25
-9.38263e-21
2.6491e-15
5.41154e-09
-3.04692e-30
-1.95671e-25
-9.38289e-21
2.64889e-15
5.41132e-09
-3.04695e-30
-1.95674e-25
-9.38351e-21
2.64848e-15
5.41095e-09
-3.04695e-30
-1.95674e-25
-9.38351e-21
2.64848e-15
5.41095e-09
-3.04692e-30
-1.95671e-25
-9.38289e-21
2.64889e-15
5.41132e-09
-3.04692e-30
-1.95671e-25
-9.38263e-21
2.6491e-15
5.41154e-09
-3.04661e-30
-1.95646e-25
-9.3796e-21
2.65067e-15
5.41284e-09
-3.04647e-30
-1.95636e-25
-9.37853e-21
2.65117e-15
5.4133e-09
-3.04361e-30
-1.9545e-25
-9.36553e-21
2.65354e-15
5.41365e-09
-3.04233e-30
-1.9537e-25
-9.36086e-21
2.65377e-15
5.41321e-09
-3.00877e-30
-1.93315e-25
-9.27099e-21
2.6249e-15
5.35876e-09
-2.99886e-30
-1.92717e-25
-9.24539e-21
2.61689e-15
5.34462e-09
-2.65763e-30
-1.72159e-25
-8.55342e-21
2.09217e-15
4.51405e-09
-2.65107e-30
-1.6349e-25
3.40671e-21
1.7553e-14
2.58109e-08
-2.99148e-30
-1.83089e-25
3.89676e-21
1.94732e-14
2.83537e-08
-3.00138e-30
-1.83677e-25
3.88586e-21
1.95012e-14
2.83945e-08
-3.03494e-30
-1.85719e-25
3.82623e-21
1.95915e-14
2.8549e-08
-3.03622e-30
-1.85803e-25
3.81786e-21
1.95892e-14
2.85492e-08
-3.0391e-30
-1.86012e-25
3.78247e-21
1.9572e-14
2.85421e-08
-3.03924e-30
-1.86024e-25
3.7788e-21
1.95694e-14
2.85402e-08
-3.03957e-30
-1.86058e-25
3.76595e-21
1.95604e-14
2.85339e-08
-3.03957e-30
-1.8606e-25
3.76469e-21
1.95594e-14
2.85331e-08
-3.0396e-30
-1.86065e-25
3.76159e-21
1.95571e-14
2.85313e-08
-3.0396e-30
-1.86065e-25
3.76159e-21
1.95571e-14
2.85313e-08
-3.03957e-30
-1.8606e-25
3.76469e-21
1.95594e-14
2.85331e-08
-3.03957e-30
-1.86058e-25
3.76595e-21
1.95604e-14
2.85339e-08
-3.03924e-30
-1.86024e-25
3.7788e-21
1.95694e-14
2.85402e-08
-3.0391e-30
-1.86012e-25
3.78247e-21
1.9572e-14
2.85421e-08
-3.03622e-30
-1.85803e-25
3.81787e-21
1.95892e-14
2.85492e-08
-3.03494e-30
-1.85719e-25
3.82623e-21
1.95915e-14
2.8549e-08
-3.00138e-30
-1.83677e-25
3.88587e-21
1.95012e-14
2.83945e-08
-2.99148e-30
-1.83089e-25
3.89676e-21
1.94732e-14
2.83537e-08
-2.65107e-30
-1.6349e-25
3.40671e-21
1.7553e-14
2.58109e-08
-2.6186e-30
-1.25149e-25
4.9489e-20
6.86701e-14
8.49246e-08
-2.95686e-30
-1.42387e-25
5.26125e-20
7.33162e-14
9.01768e-08
-2.96676e-30
-1.4296e-25
5.26252e-20
7.33773e-14
9.02555e-08
-3.00043e-30
-1.45068e-25
5.25532e-20
7.35389e-14
9.05411e-08
-3.00173e-30
-1.45171e-25
5.25291e-20
7.3528e-14
9.05382e-08
-3.00473e-30
-1.45484e-25
5.24052e-20
7.34579e-14
9.05071e-08
-3.00488e-30
-1.45507e-25
5.23924e-20
7.34493e-14
9.05017e-08
-3.00525e-30
-1.45582e-25
5.23434e-20
7.34168e-14
9.04823e-08
-3.00525e-30
-1.45587e-25
5.23387e-20
7.34135e-14
9.04801e-08
-3.00529e-30
-1.45603e-25
5.23266e-20
7.34051e-14
9.04749e-08
-3.00529e-30
-1.45603e-25
5.23266e-20
7.34051e-14
9.04749e-08
-3.00525e-30
-1.45587e-25
5.23387e-20
7.34135e-14
9.04801e-08
-3.00525e-30
-1.45582e-25
5.23434e-20
7.34168e-14
9.04823e-08
-3.00488e-30
-1.45507e-25
5.23924e-20
7.34493e-14
9.05017e-08
-3.00473e-30
-1.45484e-25
5.24052e-20
7.34579e-14
9.05071e-08
-3.00173e-30
-1.45171e-25
5.25291e-20
7.3528e-14
9.05382e-08
-3.00043e-30
-1.45068e-25
5.25532e-20
7.35389e-14
9.05411e-08
-2.96676e-30
-1.4296e-25
5.26252e-20
7.33773e-14
9.02555e-08
-2.95686e-30
-1.42387e-25
5.26125e-20
7.33162e-14
9.01768e-08
-2.6186e-30
-1.25149e-25
4.9489e-20
6.86701e-14
8.49246e-08
-2.50385e-30
-4.04276e-27
1.7755e-19
1.90998e-13
2.02488e-07
-2.83796e-30
-1.70062e-26
1.84928e-19
1.99392e-13
2.10438e-07
-2.84788e-30
-1.75822e-26
1.84955e-19
1.99485e-13
2.10545e-07
-2.88216e-30
-2.01052e-26
1.84641e-19
1.9962e-13
2.10892e-07
-2.88354e-30
-2.02701e-26
1.84571e-19
1.99585e-13
2.10879e-07
-2.88695e-30
-2.09139e-26
1.84196e-19
1.99381e-13
2.1079e-07
-2.88713e-30
-2.09683e-26
1.84158e-19
1.99358e-13
2.10778e-07
-2.88766e-30
-2.11702e-26
1.84012e-19
1.99271e-13
2.10732e-07
-2.88768e-30
-2.11868e-26
1.83998e-19
1.99262e-13
2.10727e-07
-2.88776e-30
-2.12338e-26
1.83962e-19
1.9924e-13
2.10716e-07
-2.88776e-30
-2.12338e-26
1.83962e-19
1.9924e-13
2.10716e-07
-2.88768e-30
-2.11868e-26
1.83998e-19
1.99262e-13
2.10727e-07
-2.88766e-30
-2.11702e-26
1.84012e-19
1.99271e-13
2.10732e-07
-2.88713e-30
-2.09683e-26
1.84158e-19
1.99358e-13
2.10778e-07
-2.88695e-30
-2.09139e-26
1.84196e-19
1.99381e-13
2.1079e-07
-2.88354e-30
-2.02701e-26
1.84571e-19
1.99585e-13
2.10879e-07
-2.88216e-30
-2.01052e-26
1.84641e-19
1.9962e-13
2.10892e-07
-2.84788e-30
-1.75822e-26
1.84955e-19
1.99485e-13
2.10545e-07
-2.83796e-30
-1.70062e-26
1.84928e-19
1.99392e-13
2.10438e-07
-2.50385e-30
-4.04277e-27
1.7755e-19
1.90998e-13
2.02488e-07
-2.18011e-30
3.02409e-25
4.63537e-19
4.25931e-13
3.87675e-07
-2.50856e-30
2.95012e-25
4.75815e-19
4.37849e-13
3.96862e-07
-2.51866e-30
2.94344e-25
4.75798e-19
4.3794e-13
3.96963e-07
-2.55502e-30
2.90423e-25
4.74623e-19
4.37751e-13
3.97167e-07
-2.55662e-30
2.90098e-25
4.74445e-19
4.37666e-13
3.97133e-07
-2.56119e-30
2.8861e-25
4.73498e-19
4.37187e-13
3.96932e-07
-2.56149e-30
2.88479e-25
4.73408e-19
4.37139e-13
3.96909e-07
-2.56245e-30
2.87962e-25
4.73045e-19
4.36945e-13
3.9682e-07
-2.5625e-30
2.87918e-25
4.73012e-19
4.36927e-13
3.96812e-07
-2.56268e-30
2.87793e-25
4.72922e-19
4.36878e-13
3.96789e-07
-2.56268e-30
2.87793e-25
4.72922e-19
4.36878e-13
3.96789e-07
-2.5625e-30
2.87918e-25
4.73012e-19
4.36927e-13
3.96812e-07
-2.56245e-30
2.87962e-25
4.73045e-19
4.36945e-13
3.9682e-07
-2.56149e-30
2.88479e-25
4.73408e-19
4.37139e-13
3.96909e-07
-2.56119e-30
2.8861e-25
4.73498e-19
4.37187e-13
3.96932e-07
-2.55662e-30
2.90098e-25
4.74445e-19
4.37666e-13
3.97133e-07
-2.55502e-30
2.90423e-25
4.74623e-19
4.37751e-13
3.97167e-07
-2.51866e-30
2.94344e-25
4.75798e-19
4.3794e-13
3.96963e-07
-2.50856e-30
2.95013e-25
4.75815e-19
4.37849e-13
3.96862e-07
-2.18011e-30
3.02409e-25
4.63537e-19
4.25931e-13
3.87675e-07
-1.4043e-30
9.63244e-25
1.00914e-18
8.11217e-13
6.34117e-07
-1.7294e-30
9.59791e-25
1.02451e-18
8.24666e-13
6.42205e-07
-1.74006e-30
9.58795e-25
1.0243e-18
8.24684e-13
6.42249e-07
-1.78206e-30
9.51318e-25
1.02103e-18
8.23628e-13
6.42017e-07
-1.7842e-30
9.50642e-25
1.02064e-18
8.23452e-13
6.41948e-07
-1.79157e-30
9.47317e-25
1.01858e-18
8.22497e-13
6.41569e-07
-1.79211e-30
9.47022e-25
1.01839e-18
8.22405e-13
6.41531e-07
-1.79409e-30
9.4583e-25
1.01761e-18
8.22033e-13
6.41378e-07
-1.79423e-30
9.45729e-25
1.01755e-18
8.22e-13
6.41364e-07
-1.79466e-30
9.45439e-25
1.01736e-18
8.21908e-13
6.41326e-07
-1.79466e-30
9.45439e-25
1.01736e-18
8.21908e-13
6.41326e-07
-1.79423e-30
9.45729e-25
1.01755e-18
8.22e-13
6.41364e-07
-1.79409e-30
9.4583e-25
1.01761e-18
8.22033e-13
6.41378e-07
-1.79211e-30
9.47022e-25
1.01839e-18
8.22405e-13
6.41531e-07
-1.79157e-30
9.47317e-25
1.01858e-18
8.22497e-13
6.41569e-07
-1.7842e-30
9.50642e-25
1.02064e-18
8.23452e-13
6.41948e-07
-1.78206e-30
9.51318e-25
1.02103e-18
8.23628e-13
6.42017e-07
-1.74006e-30
9.58796e-25
1.0243e-18
8.24684e-13
6.42249e-07
-1.7294e-30
9.59791e-25
1.02451e-18
8.24666e-13
6.42205e-07
-1.4043e-30
9.63244e-25
1.00914e-18
8.11217e-13
6.34117e-07
1.82001e-31
2.14569e-24
1.81196e-18
1.1937e-12
6.30768e-07
-1.49155e-31
2.14168e-24
1.82865e-18
1.20874e-12
6.38926e-07
-1.61137e-31
2.13999e-24
1.82812e-18
1.20869e-12
6.38974e-07
-2.15468e-31
2.12565e-24
1.82156e-18
1.20679e-12
6.38765e-07
-2.1871e-31
2.12434e-24
1.82086e-18
1.20653e-12
6.38698e-07
-2.31808e-31
2.11772e-24
1.81715e-18
1.2051e-12
6.38329e-07
-2.32844e-31
2.11714e-24
1.81681e-18
1.20497e-12
6.38292e-07
-2.3689e-31
2.11475e-24
1.81543e-18
1.20442e-12
6.38143e-07
-2.37201e-31
2.11454e-24
1.81532e-18
1.20438e-12
6.38129e-07
-2.3814e-31
2.11396e-24
1.81498e-18
1.20424e-12
6.38092e-07
-2.3814e-31
2.11396e-24
1.81498e-18
1.20424e-12
6.38092e-07
-2.37201e-31
2.11454e-24
1.81532e-18
1.20438e-12
6.38129e-07
-2.3689e-31
2.11475e-24
1.81543e-18
1.20442e-12
6.38143e-07
-2.32844e-31
2.11714e-24
1.81681e-18
1.20497e-12
6.38292e-07
-2.31808e-31
2.11772e-24
1.81715e-18
1.2051e-12
6.38329e-07
-2.1871e-31
2.12434e-24
1.82086e-18
1.20653e-12
6.38698e-07
-2.15468e-31
2.12565e-24
1.82156e-18
1.20679e-12
6.38765e-07
-1.61137e-31
2.13999e-24
1.82812e-18
1.20869e-12
6.38974e-07
-1.49155e-31
2.14168e-24
1.82865e-18
1.20874e-12
6.38926e-07
1.82001e-31
2.14569e-24
1.81196e-18
1.1937e-12
6.30768e-07
3.05152e-30
4.01511e-24
2.86951e-18
1.57335e-12
6.27483e-07
2.69453e-30
4.00319e-24
2.88581e-18
1.59004e-12
6.35709e-07
2.67996e-30
4.0003e-24
2.88484e-18
1.58993e-12
6.35762e-07
2.60244e-30
3.9747e-24
2.87383e-18
1.58721e-12
6.35576e-07
2.5972e-30
3.97239e-24
2.87271e-18
1.58687e-12
6.35511e-07
2.57375e-30
3.96056e-24
2.86684e-18
1.58499e-12
6.3515e-07
2.57183e-30
3.95953e-24
2.86631e-18
1.58481e-12
6.35114e-07
2.56407e-30
3.95525e-24
2.86414e-18
1.5841e-12
6.34968e-07
2.56345e-30
3.95489e-24
2.86396e-18
1.58403e-12
6.34955e-07
2.56161e-30
3.95385e-24
2.86343e-18
1.58386e-12
6.34919e-07
2.56161e-30
3.95385e-24
2.86343e-18
1.58386e-12
6.34919e-07
2.56345e-30
3.95489e-24
2.86396e-18
1.58403e-12
6.34955e-07
2.56407e-30
3.95525e-24
2.86414e-18
1.5841e-12
6.34968e-07
2.57183e-30
3.95953e-24
2.86631e-18
1.58481e-12
6.35114e-07
2.57375e-30
3.96056e-24
2.86684e-18
1.58499e-12
6.3515e-07
2.5972e-30
3.97239e-24
2.87271e-18
1.58687e-12
6.35511e-07
2.60244e-30
3.9747e-24
2.87383e-18
1.58721e-12
6.35576e-07
2.67996e-30
4.0003e-24
2.88484e-18
1.58993e-12
6.35762e-07
2.69453e-30
4.00319e-24
2.88581e-18
1.59004e-12
6.35709e-07
3.05152e-30
4.01511e-24
2.86951e-18
1.57335e-12
6.27483e-07
7.79026e-30
6.73491e-24
4.1792e-18
1.9501e-12
6.24251e-07
7.37396e-30
6.70493e-24
4.19347e-18
1.96849e-12
6.32544e-07
7.35491e-30
6.70022e-24
4.19193e-18
1.96832e-12
6.326e-07
7.23818e-30
6.65787e-24
4.17534e-18
1.96483e-12
6.32437e-07
7.22968e-30
6.65413e-24
4.17371e-18
1.9644e-12
6.32373e-07
7.18916e-30
6.63472e-24
4.16517e-18
1.96207e-12
6.32022e-07
7.1858e-30
6.63304e-24
4.16442e-18
1.96186e-12
6.31986e-07
7.17194e-30
6.62604e-24
4.16128e-18
1.96097e-12
6.31844e-07
7.17082e-30
6.62546e-24
4.16101e-18
1.9609e-12
6.31831e-07
7.16749e-30
6.62375e-24
4.16024e-18
1.96068e-12
6.31796e-07
7.16749e-30
6.62375e-24
4.16024e-18
1.96068e-12
6.31796e-07
7.17082e-30
6.62546e-24
4.16101e-18
1.9609e-12
6.31831e-07
7.17194e-30
6.62604e-24
4.16128e-18
1.96097e-12
6.31844e-07
7.1858e-30
6.63304e-24
4.16442e-18
1.96186e-12
6.31986e-07
7.18916e-30
6.63472e-24
4.16517e-18
1.96207e-12
6.32022e-07
7.22968e-30
6.65413e-24
4.17371e-18
1.9644e-12
6.32373e-07
7.23818e-30
6.65787e-24
4.17534e-18
1.96483e-12
6.32437e-07
7.35491e-30
6.70022e-24
4.19193e-18
1.96832e-12
6.326e-07
7.37396e-30
6.70493e-24
4.19347e-18
1.96849e-12
6.32544e-07
7.79026e-30
6.73491e-24
4.1792e-18
1.9501e-12
6.24251e-07
1.50964e-29
1.04665e-23
5.73835e-18
2.32387e-12
6.21067e-07
1.45703e-29
1.04055e-23
5.74898e-18
2.34403e-12
6.29425e-07
1.45442e-29
1.03982e-23
5.74677e-18
2.34381e-12
6.29485e-07
1.43661e-29
1.03326e-23
5.72351e-18
2.33955e-12
6.29343e-07
1.43526e-29
1.03269e-23
5.72129e-18
2.33904e-12
6.29282e-07
1.42858e-29
1.02972e-23
5.70959e-18
2.33628e-12
6.28939e-07
1.42803e-29
1.02946e-23
5.70857e-18
2.33603e-12
6.28905e-07
1.42571e-29
1.02839e-23
5.70428e-18
2.33498e-12
6.28766e-07
1.42552e-29
1.0283e-23
5.70392e-18
2.33489e-12
6.28753e-07
1.42496e-29
1.02804e-23
5.70287e-18
2.33463e-12
6.28718e-07
1.42496e-29
1.02804e-23
5.70287e-18
2.33463e-12
6.28718e-07
1.42552e-29
1.0283e-23
5.70392e-18
2.33489e-12
6.28753e-07
1.42571e-29
1.02839e-23
5.70428e-18
2.33498e-12
6.28766e-07
1.42803e-29
1.02946e-23
5.70857e-18
2.33603e-12
6.28905e-07
1.42858e-29
1.02972e-23
5.70959e-18
2.33628e-12
6.28939e-07
1.43526e-29
1.03269e-23
5.72129e-18
2.33904e-12
6.29282e-07
1.43661e-29
1.03326e-23
5.72351e-18
2.33955e-12
6.29343e-07
1.45442e-29
1.03982e-23
5.74677e-18
2.34381e-12
6.29485e-07
1.45703e-29
1.04055e-23
5.74898e-18
2.34403e-12
6.29425e-07
1.50964e-29
1.04665e-23
5.73835e-18
2.32387e-12
6.21067e-07
2.57792e-29
1.53692e-23
7.54417e-18
2.69458e-12
6.17928e-07
2.50726e-29
1.52615e-23
7.54963e-18
2.71656e-12
6.2635e-07
2.50359e-29
1.52508e-23
7.54663e-18
2.71629e-12
6.26414e-07
2.47673e-29
1.51545e-23
7.51566e-18
2.71131e-12
6.26293e-07
2.47465e-29
1.51462e-23
7.51277e-18
2.71072e-12
6.26233e-07
2.46415e-29
1.51029e-23
7.49743e-18
2.70753e-12
6.25899e-07
2.46327e-29
1.50992e-23
7.4961e-18
2.70724e-12
6.25865e-07
2.45959e-29
1.50836e-23
7.4905e-18
2.70604e-12
6.25729e-07
2.4593e-29
1.50823e-23
7.49003e-18
2.70594e-12
6.25717e-07
2.45841e-29
1.50786e-23
7.48866e-18
2.70564e-12
6.25683e-07
2.45841e-29
1.50786e-23
7.48866e-18
2.70564e-12
6.25683e-07
2.4593e-29
1.50823e-23
7.49003e-18
2.70594e-12
6.25717e-07
2.45959e-29
1.50836e-23
7.4905e-18
2.70604e-12
6.25729e-07
2.46327e-29
1.50992e-23
7.4961e-18
2.70724e-12
6.25865e-07
2.46415e-29
1.51029e-23
7.49743e-18
2.70753e-12
6.25899e-07
2.47465e-29
1.51462e-23
7.51277e-18
2.71072e-12
6.26233e-07
2.47673e-29
1.51545e-23
7.51566e-18
2.71131e-12
6.26293e-07
2.50359e-29
1.52508e-23
7.54663e-18
2.71629e-12
6.26414e-07
2.50726e-29
1.52615e-23
7.54963e-18
2.71656e-12
6.26349e-07
2.57792e-29
1.53692e-23
7.54417e-18
2.69458e-12
6.17928e-07
4.07578e-29
2.16002e-23
9.5938e-18
3.06215e-12
6.14829e-07
3.97762e-29
2.14272e-23
9.59258e-18
3.08601e-12
6.23313e-07
3.97246e-29
2.14122e-23
9.58871e-18
3.08571e-12
6.23381e-07
3.93285e-29
2.12767e-23
9.54903e-18
3.08002e-12
6.23281e-07
3.92976e-29
2.12652e-23
9.54537e-18
3.07936e-12
6.23223e-07
3.9139e-29
2.12048e-23
9.52594e-18
3.07576e-12
6.22897e-07
3.91259e-29
2.11996e-23
9.52426e-18
3.07543e-12
6.22864e-07
3.90701e-29
2.11779e-23
9.51718e-18
3.07408e-12
6.22731e-07
3.90657e-29
2.11762e-23
9.51659e-18
3.07396e-12
6.22719e-07
3.90522e-29
2.11709e-23
9.51486e-18
3.07363e-12
6.22686e-07
3.90522e-29
2.11709e-23
9.51486e-18
3.07363e-12
6.22686e-07
3.90657e-29
2.11762e-23
9.51659e-18
3.07396e-12
6.22719e-07
3.90701e-29
2.11779e-23
9.51718e-18
3.07408e-12
6.22731e-07
3.91259e-29
2.11996e-23
9.52426e-18
3.07543e-12
6.22864e-07
3.9139e-29
2.12048e-23
9.52594e-18
3.07576e-12
6.22897e-07
3.92976e-29
2.12652e-23
9.54537e-18
3.07936e-12
6.23223e-07
3.93285e-29
2.12767e-23
9.54903e-18
3.08002e-12
6.23281e-07
3.97246e-29
2.14122e-23
9.58871e-18
3.08571e-12
6.23381e-07
3.97762e-29
2.14272e-23
9.59258e-18
3.08601e-12
6.23313e-07
4.07578e-29
2.16002e-23
9.5938e-18
3.06215e-12
6.14829e-07
6.10604e-29
2.93143e-23
1.18843e-17
3.42651e-12
6.11767e-07
5.96824e-29
2.9055e-23
1.18749e-17
3.4523e-12
6.20313e-07
5.96104e-29
2.90346e-23
1.18701e-17
3.45196e-12
6.20384e-07
5.90409e-29
2.88506e-23
1.18207e-17
3.44561e-12
6.20304e-07
5.89963e-29
2.88351e-23
1.18162e-17
3.44487e-12
6.20248e-07
5.87656e-29
2.87536e-23
1.17923e-17
3.44087e-12
6.1993e-07
5.87465e-29
2.87467e-23
1.17902e-17
3.44051e-12
6.19898e-07
5.86653e-29
2.87175e-23
1.17815e-17
3.43901e-12
6.19769e-07
5.86587e-29
2.87151e-23
1.17808e-17
3.43888e-12
6.19757e-07
5.86391e-29
2.8708e-23
1.17786e-17
3.43851e-12
6.19724e-07
5.86391e-29
2.8708e-23
1.17786e-17
3.43851e-12
6.19724e-07
5.86587e-29
2.87151e-23
1.17808e-17
3.43888e-12
6.19757e-07
5.86653e-29
2.87175e-23
1.17815e-17
3.43901e-12
6.19769e-07
5.87465e-29
2.87467e-23
1.17902e-17
3.44051e-12
6.19898e-07
5.87656e-29
2.87536e-23
1.17923e-17
3.44087e-12
6.1993e-07
5.89963e-29
2.88351e-23
1.18162e-17
3.44487e-12
6.20248e-07
5.90409e-29
2.88506e-23
1.18207e-17
3.44561e-12
6.20304e-07
5.96104e-29
2.90346e-23
1.18701e-17
3.45196e-12
6.20384e-07
5.96824e-29
2.9055e-23
1.18749e-17
3.4523e-12
6.20313e-07
6.10604e-29
2.93143e-23
1.18843e-17
3.42651e-12
6.11767e-07
8.78227e-29
3.86643e-23
1.44125e-17
3.78757e-12
6.08738e-07
8.58962e-29
3.82947e-23
1.43937e-17
3.81535e-12
6.17344e-07
8.57974e-29
3.82679e-23
1.43878e-17
3.81498e-12
6.17419e-07
8.49991e-29
3.80251e-23
1.43278e-17
3.80799e-12
6.17359e-07
8.49367e-29
3.80049e-23
1.43224e-17
3.80719e-12
6.17305e-07
8.46112e-29
3.78979e-23
1.42935e-17
3.80279e-12
6.16995e-07
8.45844e-29
3.7889e-23
1.4291e-17
3.8024e-12
6.16963e-07
8.44697e-29
3.78507e-23
1.42805e-17
3.80075e-12
6.16837e-07
8.44606e-29
3.78476e-23
1.42796e-17
3.80061e-12
6.16825e-07
8.44328e-29
3.78383e-23
1.42771e-17
3.80021e-12
6.16793e-07
8.44328e-29
3.78383e-23
1.42771e-17
3.80021e-12
6.16793e-07
8.44606e-29
3.78476e-23
1.42796e-17
3.80061e-12
6.16825e-07
8.44697e-29
3.78507e-23
1.42805e-17
3.80075e-12
6.16837e-07
8.45844e-29
3.7889e-23
1.4291e-17
3.8024e-12
6.16963e-07
8.46112e-29
3.78979e-23
1.42935e-17
3.80279e-12
6.16995e-07
8.49367e-29
3.80049e-23
1.43224e-17
3.80719e-12
6.17305e-07
8.49991e-29
3.80251e-23
1.43278e-17
3.80799e-12
6.17359e-07
8.57974e-29
3.82679e-23
1.43878e-17
3.81498e-12
6.17419e-07
8.58962e-29
3.82947e-23
1.43937e-17
3.81535e-12
6.17344e-07
8.78227e-29
3.86643e-23
1.44125e-17
3.78757e-12
6.08738e-07
1.22287e-28
4.98004e-23
1.71753e-17
4.14523e-12
6.05734e-07
1.19626e-28
4.9294e-23
1.71457e-17
4.17507e-12
6.14399e-07
1.19493e-28
4.92595e-23
1.71387e-17
4.17468e-12
6.14478e-07
1.184e-28
4.8947e-23
1.70673e-17
4.16708e-12
6.14438e-07
1.18315e-28
4.89213e-23
1.70609e-17
4.16621e-12
6.14385e-07
1.17868e-28
4.87841e-23
1.70265e-17
4.16144e-12
6.14083e-07
1.17831e-28
4.87727e-23
1.70236e-17
4.16101e-12
6.14052e-07
1.17674e-28
4.87237e-23
1.70112e-17
4.15922e-12
6.13928e-07
1.17661e-28
4.87198e-23
1.70102e-17
4.15907e-12
6.13917e-07
1.17623e-28
4.87079e-23
1.70071e-17
4.15863e-12
6.13886e-07
1.17623e-28
4.87079e-23
1.70071e-17
4.15863e-12
6.13886e-07
1.17661e-28
4.87198e-23
1.70102e-17
4.15907e-12
6.13917e-07
1.17674e-28
4.87237e-23
1.70112e-17
4.15922e-12
6.13928e-07
1.17831e-28
4.87727e-23
1.70236e-17
4.16101e-12
6.14052e-07
1.17868e-28
4.87841e-23
1.70265e-17
4.16144e-12
6.14083e-07
1.18315e-28
4.89213e-23
1.70609e-17
4.16621e-12
6.14385e-07
1.184e-28
4.8947e-23
1.70673e-17
4.16708e-12
6.14438e-07
1.19493e-28
4.92595e-23
1.71387e-17
4.17468e-12
6.14478e-07
1.19626e-28
4.9294e-23
1.71457e-17
4.17507e-12
6.14399e-07
1.22287e-28
4.98004e-23
1.71753e-17
4.14523e-12
6.05734e-07
1.658e-28
6.28705e-23
2.01695e-17
4.49941e-12
6.02727e-07
1.62182e-28
6.21981e-23
2.01278e-17
4.53136e-12
6.11451e-07
1.62005e-28
6.21547e-23
2.01196e-17
4.53095e-12
6.11534e-07
1.60541e-28
6.17607e-23
2.00359e-17
4.52277e-12
6.11513e-07
1.60427e-28
6.17285e-23
2.00284e-17
4.52184e-12
6.11462e-07
1.59828e-28
6.15561e-23
1.99883e-17
4.5167e-12
6.11167e-07
1.59779e-28
6.15419e-23
1.99849e-17
4.51624e-12
6.11137e-07
1.59568e-28
6.14804e-23
1.99704e-17
4.51432e-12
6.11017e-07
1.59551e-28
6.14755e-23
1.99692e-17
4.51415e-12
6.11005e-07
1.595e-28
6.14606e-23
1.99657e-17
4.51368e-12
6.10975e-07
1.595e-28
6.14606e-23
1.99657e-17
4.51368e-12
6.10975e-07
1.59551e-28
6.14755e-23
1.99692e-17
4.51415e-12
6.11005e-07
1.59568e-28
6.14804e-23
1.99704e-17
4.51432e-12
6.11017e-07
1.59779e-28
6.15419e-23
1.99849e-17
4.51624e-12
6.11137e-07
1.59828e-28
6.15561e-23
1.99883e-17
4.5167e-12
6.11167e-07
1.60427e-28
6.17285e-23
2.00284e-17
4.52184e-12
6.11462e-07
1.60541e-28
6.17607e-23
2.00359e-17
4.52277e-12
6.11513e-07
1.62005e-28
6.21547e-23
2.01196e-17
4.53095e-12
6.11534e-07
1.62182e-28
6.21981e-23
2.01278e-17
4.53136e-12
6.11451e-07
1.658e-28
6.28705e-23
2.01695e-17
4.49941e-12
6.02727e-07
-1.87206e-06
-2.02676e-07
-4.22323e-09
-1.94265e-11
-1.73399e-14
2.81616e-17
3.15989e-17
3.16329e-17
3.16406e-17
3.16417e-17
3.16441e-17
3.16533e-17
3.17057e-17
3.17757e-17
3.23855e-17
3.29455e-17
3.90136e-17
4.24829e-17
1.31466e-16
1.5413e-16
-1.992e-06
-2.1892e-07
-4.69443e-09
-2.22922e-11
-2.0606e-14
2.74378e-17
3.15978e-17
3.16324e-17
3.16402e-17
3.16412e-17
3.16415e-17
3.16492e-17
3.17025e-17
3.17736e-17
3.23925e-17
3.29585e-17
3.9097e-17
4.25877e-17
1.32507e-16
1.55394e-16
-1.99539e-06
-2.19285e-07
-4.70214e-09
-2.23331e-11
-2.06515e-14
2.74272e-17
3.15978e-17
3.16325e-17
3.16402e-17
3.16412e-17
3.16415e-17
3.16494e-17
3.17028e-17
3.17739e-17
3.2393e-17
3.29591e-17
3.90987e-17
4.25896e-17
1.32517e-16
1.55404e-16
-2.00757e-06
-2.20474e-07
-4.7215e-09
-2.24161e-11
-2.07365e-14
2.74067e-17
3.15978e-17
3.16325e-17
3.16403e-17
3.16413e-17
3.16419e-17
3.16505e-17
3.17041e-17
3.17752e-17
3.23949e-17
3.29613e-17
3.91039e-17
4.25952e-17
1.32546e-16
1.5543e-16
-2.00803e-06
-2.20511e-07
-4.72186e-09
-2.24167e-11
-2.07364e-14
2.74066e-17
3.15978e-17
3.16325e-17
3.16403e-17
3.16413e-17
3.16419e-17
3.16505e-17
3.17041e-17
3.17752e-17
3.23949e-17
3.29613e-17
3.9104e-17
4.25954e-17
1.32546e-16
1.55431e-16
-2.00928e-06
-2.20558e-07
-4.72109e-09
-2.24094e-11
-2.07275e-14
2.74082e-17
3.15978e-17
3.16325e-17
3.16403e-17
3.16413e-17
3.1642e-17
3.16506e-17
3.17041e-17
3.17753e-17
3.2395e-17
3.29614e-17
3.91042e-17
4.25956e-17
1.32547e-16
1.55431e-16
-2.00938e-06
-2.2056e-07
-4.721e-09
-2.24086e-11
-2.07265e-14
2.74084e-17
3.15978e-17
3.16325e-17
3.16403e-17
3.16413e-17
3.1642e-17
3.16506e-17
3.17042e-17
3.17753e-17
3.2395e-17
3.29615e-17
3.91043e-17
4.25956e-17
1.32548e-16
1.55432e-16
-2.00964e-06
-2.20556e-07
-4.72042e-09
-2.2405e-11
-2.07228e-14
2.7409e-17
3.15978e-17
3.16325e-17
3.16403e-17
3.16413e-17
3.1642e-17
3.16506e-17
3.17042e-17
3.17753e-17
3.2395e-17
3.29615e-17
3.91043e-17
4.25956e-17
1.32548e-16
1.55432e-16
-2.00967e-06
-2.20556e-07
-4.72038e-09
-2.24047e-11
-2.07225e-14
2.74091e-17
3.15978e-17
3.16325e-17
3.16403e-17
3.16413e-17
3.1642e-17
3.16506e-17
3.17042e-17
3.17753e-17
3.2395e-17
3.29615e-17
3.91043e-17
4.25956e-17
1.32548e-16
1.55432e-16
-2.00973e-06
-2.20554e-07
-4.72024e-09
-2.2404e-11
-2.07217e-14
2.74092e-17
3.15978e-17
3.16325e-17
3.16403e-17
3.16413e-17
3.1642e-17
3.16506e-17
3.17041e-17
3.17753e-17
3.2395e-17
3.29614e-17
3.91043e-17
4.25956e-17
1.32547e-16
1.55432e-16
-2.00973e-06
-2.20554e-07
-4.72024e-09
-2.2404e-11
-2.07217e-14
2.74092e-17
3.15978e-17
3.16325e-17
3.16403e-17
3.16413e-17
3.1642e-17
3.16506e-17
3.17041e-17
3.17753e-17
3.2395e-17
3.29614e-17
3.91043e-17
4.25956e-17
1.32547e-16
1.55432e-16
-2.00967e-06
-2.20556e-07
-4.72038e-09
-2.24047e-11
-2.07225e-14
2.74091e-17
3.15978e-17
3.16325e-17
3.16403e-17
3.16413e-17
3.1642e-17
3.16506e-17
3.17042e-17
3.17753e-17
3.2395e-17
3.29615e-17
3.91043e-17
4.25956e-17
1.32548e-16
1.55432e-16
-2.00964e-06
-2.20556e-07
-4.72042e-09
-2.2405e-11
-2.07228e-14
2.7409e-17
3.15978e-17
3.16325e-17
3.16403e-17
3.16413e-17
3.1642e-17
3.16506e-17
3.17042e-17
3.17753e-17
3.2395e-17
3.29615e-17
3.91043e-17
4.25956e-17
1.32548e-16
1.55432e-16
-2.00938e-06
-2.2056e-07
-4.721e-09
-2.24086e-11
-2.07265e-14
2.74084e-17
3.15978e-17
3.16325e-17
3.16403e-17
3.16413e-17
3.1642e-17
3.16506e-17
3.17042e-17
3.17753e-17
3.2395e-17
3.29615e-17
3.91043e-17
4.25956e-17
1.32548e-16
1.55432e-16
-2.00928e-06
-2.20558e-07
-4.72109e-09
-2.24094e-11
-2.07275e-14
2.74082e-17
3.15978e-17
3.16325e-17
3.16403e-17
3.16413e-17
3.1642e-17
3.16506e-17
3.17041e-17
3.17753e-17
3.2395e-17
3.29614e-17
3.91042e-17
4.25956e-17
1.32547e-16
1.55431e-16
-2.00803e-06
-2.20511e-07
-4.72186e-09
-2.24167e-11
-2.07364e-14
2.74066e-17
3.15978e-17
3.16325e-17
3.16403e-17
3.16413e-17
3.16419e-17
3.16505e-17
3.17041e-17
3.17752e-17
3.23949e-17
3.29613e-17
3.9104e-17
4.25954e-17
1.32546e-16
1.55431e-16
-2.00757e-06
-2.20474e-07
-4.7215e-09
-2.24161e-11
-2.07365e-14
2.74067e-17
3.15978e-17
3.16325e-17
3.16403e-17
3.16413e-17
3.16419e-17
3.16505e-17
3.17041e-17
3.17752e-17
3.23949e-17
3.29613e-17
3.91039e-17
4.25952e-17
1.32546e-16
1.5543e-16
-1.99539e-06
-2.19285e-07
-4.70214e-09
-2.23331e-11
-2.06515e-14
2.74272e-17
3.15978e-17
3.16325e-17
3.16402e-17
3.16412e-17
3.16415e-17
3.16494e-17
3.17028e-17
3.17739e-17
3.2393e-17
3.29591e-17
3.90987e-17
4.25896e-17
1.32517e-16
1.55404e-16
-1.992e-06
-2.1892e-07
-4.69443e-09
-2.22922e-11
-2.0606e-14
2.74378e-17
3.15978e-17
3.16324e-17
3.16402e-17
3.16412e-17
3.16415e-17
3.16492e-17
3.17025e-17
3.17736e-17
3.23925e-17
3.29585e-17
3.9097e-17
4.25877e-17
1.32507e-16
1.55394e-16
-1.87206e-06
-2.02676e-07
-4.22323e-09
-1.94265e-11
-1.73399e-14
2.81616e-17
3.15989e-17
3.16329e-17
3.16406e-17
3.16417e-17
3.16441e-17
3.16533e-17
3.17057e-17
3.17757e-17
3.23855e-17
3.29455e-17
3.90136e-17
4.24829e-17
1.31466e-16
1.5413e-16
-6.11886e-05
-1.0445e-05
-3.07912e-07