/*--------------------------------*- C++ -*----------------------------------*\
  =========                 |
  \\      /  F ield         | OpenFOAM: The Open Source CFD Toolbox
   \\    /   O peration     | Website:  https://openfoam.org
    \\  /    A nd           | Version:  8
     \\/     M anipulation  |
\*---------------------------------------------------------------------------*/
FoamFile
{
    version     2.0;
    format      ascii;
    class       volScalarField;
    location    "2";
    object      H2;
}
// * * * * * * * * * * * * * * * * * * * * * * * * * * * * * * * * * * * * * //

dimensions      [0 1 -1 0 0 0 0];

internalField   nonuniform List<scalar> 
180000
(
-6.88694e-29
-3.0894e-24
-1.21717e-19
-4.03009e-15
-1.06102e-10
-7.57452e-29
-3.36672e-24
-1.31078e-19
-4.26711e-15
-1.0915e-10
-7.59491e-29
-3.37495e-24
-1.31358e-19
-4.27449e-15
-1.09271e-10
-7.6641e-29
-3.40312e-24
-1.32324e-19
-4.30011e-15
-1.09685e-10
-7.66682e-29
-3.40424e-24
-1.32363e-19
-4.30118e-15
-1.09707e-10
-7.6734e-29
-3.40701e-24
-1.32462e-19
-4.30408e-15
-1.09769e-10
-7.67381e-29
-3.4072e-24
-1.32469e-19
-4.30432e-15
-1.09776e-10
-7.67484e-29
-3.40768e-24
-1.32488e-19
-4.30496e-15
-1.09794e-10
-7.67491e-29
-3.40772e-24
-1.3249e-19
-4.30503e-15
-1.09796e-10
-7.67508e-29
-3.4078e-24
-1.32494e-19
-4.30518e-15
-1.09801e-10
-7.67508e-29
-3.4078e-24
-1.32494e-19
-4.30518e-15
-1.09801e-10
-7.67491e-29
-3.40772e-24
-1.3249e-19
-4.30503e-15
-1.09796e-10
-7.67484e-29
-3.40768e-24
-1.32488e-19
-4.30496e-15
-1.09794e-10
-7.67381e-29
-3.4072e-24
-1.32469e-19
-4.30432e-15
-1.09776e-10
-7.6734e-29
-3.40701e-24
-1.32462e-19
-4.30408e-15
-1.09769e-10
-7.66682e-29
-3.40424e-24
-1.32363e-19
-4.30118e-15
-1.09707e-10
-7.6641e-29
-3.40312e-24
-1.32324e-19
-4.30011e-15
-1.09685e-10
-7.59491e-29
-3.37495e-24
-1.31358e-19
-4.27449e-15
-1.09271e-10
-7.57452e-29
-3.36672e-24
-1.31078e-19
-4.26711e-15
-1.0915e-10
-6.88694e-29
-3.0894e-24
-1.21717e-19
-4.03009e-15
-1.06102e-10
-6.88666e-29
-3.08925e-24
-1.21707e-19
-4.03081e-15
-1.07214e-10
-7.57422e-29
-3.36656e-24
-1.31065e-19
-4.26477e-15
-1.05017e-10
-7.59461e-29
-3.37479e-24
-1.31345e-19
-4.2721e-15
-1.05057e-10
-7.66379e-29
-3.40295e-24
-1.32311e-19
-4.29755e-15
-1.05181e-10
-7.66652e-29
-3.40407e-24
-1.3235e-19
-4.29863e-15
-1.05208e-10
-7.67309e-29
-3.40684e-24
-1.32449e-19
-4.30153e-15
-1.05294e-10
-7.6735e-29
-3.40703e-24
-1.32456e-19
-4.30178e-15
-1.05307e-10
-7.67454e-29
-3.40751e-24
-1.32475e-19
-4.30243e-15
-1.05339e-10
-7.6746e-29
-3.40755e-24
-1.32477e-19
-4.30251e-15
-1.05344e-10
-7.67478e-29
-3.40764e-24
-1.32481e-19
-4.30265e-15
-1.05353e-10
-7.67478e-29
-3.40764e-24
-1.32481e-19
-4.30265e-15
-1.05353e-10
-7.6746e-29
-3.40755e-24
-1.32477e-19
-4.30251e-15
-1.05344e-10
-7.67454e-29
-3.40751e-24
-1.32475e-19
-4.30243e-15
-1.05339e-10
-7.6735e-29
-3.40703e-24
-1.32456e-19
-4.30178e-15
-1.05307e-10
-7.67309e-29
-3.40684e-24
-1.32449e-19
-4.30153e-15
-1.05294e-10
-7.66652e-29
-3.40407e-24
-1.3235e-19
-4.29863e-15
-1.05208e-10
-7.66379e-29
-3.40295e-24
-1.32311e-19
-4.29755e-15
-1.05181e-10
-7.59461e-29
-3.37479e-24
-1.31345e-19
-4.2721e-15
-1.05057e-10
-7.57422e-29
-3.36656e-24
-1.31065e-19
-4.26477e-15
-1.05017e-10
-6.88667e-29
-3.08925e-24
-1.21707e-19
-4.03081e-15
-1.07214e-10
-6.88642e-29
-3.08893e-24
-1.21547e-19
-3.80377e-15
2.86017e-10
-7.57395e-29
-3.3662e-24
-1.30873e-19
-3.99036e-15
3.67541e-10
-7.59435e-29
-3.37443e-24
-1.31153e-19
-3.9971e-15
3.68597e-10
-7.66353e-29
-3.40259e-24
-1.32118e-19
-4.02071e-15
3.7225e-10
-7.66625e-29
-3.40371e-24
-1.32157e-19
-4.02193e-15
3.7206e-10
-7.67283e-29
-3.40648e-24
-1.32257e-19
-4.02547e-15
3.71262e-10
-7.67324e-29
-3.40667e-24
-1.32264e-19
-4.02581e-15
3.71123e-10
-7.67427e-29
-3.40715e-24
-1.32284e-19
-4.02677e-15
3.70718e-10
-7.67434e-29
-3.40719e-24
-1.32286e-19
-4.02688e-15
3.70664e-10
-7.67451e-29
-3.40727e-24
-1.32289e-19
-4.0271e-15
3.70559e-10
-7.67451e-29
-3.40727e-24
-1.32289e-19
-4.0271e-15
3.70559e-10
-7.67434e-29
-3.40719e-24
-1.32286e-19
-4.02688e-15
3.70664e-10
-7.67427e-29
-3.40715e-24
-1.32284e-19
-4.02677e-15
3.70718e-10
-7.67324e-29
-3.40667e-24
-1.32264e-19
-4.02581e-15
3.71123e-10
-7.67283e-29
-3.40648e-24
-1.32257e-19
-4.02547e-15
3.71262e-10
-7.66625e-29
-3.40371e-24
-1.32157e-19
-4.02193e-15
3.7206e-10
-7.66353e-29
-3.40259e-24
-1.32118e-19
-4.02071e-15
3.7225e-10
-7.59435e-29
-3.37443e-24
-1.31153e-19
-3.9971e-15
3.68597e-10
-7.57395e-29
-3.3662e-24
-1.30873e-19
-3.99036e-15
3.67541e-10
-6.88642e-29
-3.08893e-24
-1.21547e-19
-3.80377e-15
2.86017e-10
-6.88608e-29
-3.08735e-24
-1.19724e-19
-1.20823e-15
4.34289e-09
-7.57358e-29
-3.36445e-24
-1.28855e-19
-1.11293e-15
4.85951e-09
-7.59398e-29
-3.37268e-24
-1.29133e-19
-1.1167e-15
4.86596e-09
-7.66316e-29
-3.40084e-24
-1.30097e-19
-1.13288e-15
4.88799e-09
-7.66588e-29
-3.40196e-24
-1.30137e-19
-1.13535e-15
4.88664e-09
-7.67246e-29
-3.40474e-24
-1.30243e-19
-1.14448e-15
4.8807e-09
-7.67287e-29
-3.40493e-24
-1.30252e-19
-1.1456e-15
4.87974e-09
-7.6739e-29
-3.40541e-24
-1.30274e-19
-1.14913e-15
4.87676e-09
-7.67397e-29
-3.40545e-24
-1.30276e-19
-1.14954e-15
4.87639e-09
-7.67414e-29
-3.40553e-24
-1.3028e-19
-1.15044e-15
4.87561e-09
-7.67414e-29
-3.40553e-24
-1.3028e-19
-1.15044e-15
4.87561e-09
-7.67397e-29
-3.40545e-24
-1.30276e-19
-1.14954e-15
4.87639e-09
-7.6739e-29
-3.40541e-24
-1.30274e-19
-1.14913e-15
4.87676e-09
-7.67287e-29
-3.40493e-24
-1.30252e-19
-1.1456e-15
4.87974e-09
-7.67246e-29
-3.40474e-24
-1.30243e-19
-1.14448e-15
4.8807e-09
-7.66588e-29
-3.40196e-24
-1.30137e-19
-1.13535e-15
4.88664e-09
-7.66316e-29
-3.40084e-24
-1.30097e-19
-1.13288e-15
4.88799e-09
-7.59398e-29
-3.37268e-24
-1.29133e-19
-1.1167e-15
4.86596e-09
-7.57358e-29
-3.36445e-24
-1.28855e-19
-1.11293e-15
4.85951e-09
-6.88608e-29
-3.08735e-24
-1.19724e-19
-1.20823e-15
4.34289e-09
-6.88522e-29
-3.07924e-24
-1.09456e-19
1.19476e-14
2.23637e-08
-7.57265e-29
-3.35581e-24
-1.17898e-19
1.29475e-14
2.40925e-08
-7.59305e-29
-3.36404e-24
-1.18174e-19
1.29511e-14
2.41123e-08
-7.66224e-29
-3.39223e-24
-1.19153e-19
1.29463e-14
2.41789e-08
-7.66496e-29
-3.39335e-24
-1.192e-19
1.29384e-14
2.41735e-08
-7.67154e-29
-3.39616e-24
-1.19337e-19
1.29046e-14
2.41495e-08
-7.67195e-29
-3.39635e-24
-1.19349e-19
1.29003e-14
2.41459e-08
-7.67299e-29
-3.39685e-24
-1.19385e-19
1.28857e-14
2.41341e-08
-7.67305e-29
-3.39688e-24
-1.19388e-19
1.28841e-14
2.41327e-08
-7.67323e-29
-3.39698e-24
-1.19396e-19
1.28803e-14
2.41296e-08
-7.67323e-29
-3.39698e-24
-1.19396e-19
1.28803e-14
2.41296e-08
-7.67305e-29
-3.39688e-24
-1.19388e-19
1.28841e-14
2.41327e-08
-7.67299e-29
-3.39685e-24
-1.19385e-19
1.28857e-14
2.41341e-08
-7.67195e-29
-3.39635e-24
-1.19349e-19
1.29003e-14
2.41459e-08
-7.67154e-29
-3.39616e-24
-1.19337e-19
1.29046e-14
2.41495e-08
-7.66496e-29
-3.39335e-24
-1.192e-19
1.29384e-14
2.41735e-08
-7.66224e-29
-3.39223e-24
-1.19153e-19
1.29463e-14
2.41789e-08
-7.59306e-29
-3.36404e-24
-1.18174e-19
1.29511e-14
2.41123e-08
-7.57265e-29
-3.35581e-24
-1.17898e-19
1.29475e-14
2.40925e-08
-6.88522e-29
-3.07924e-24
-1.09456e-19
1.19476e-14
2.23637e-08
-6.88231e-29
-3.04784e-24
-7.22797e-20
5.37783e-14
7.11644e-08
-7.56961e-29
-3.32307e-24
-7.91119e-20
5.66417e-14
7.49293e-08
-7.59003e-29
-3.33132e-24
-7.93906e-20
5.66548e-14
7.49676e-08
-7.65923e-29
-3.35964e-24
-8.0468e-20
5.66358e-14
7.50905e-08
-7.66195e-29
-3.36079e-24
-8.05382e-20
5.66121e-14
7.50757e-08
-7.66855e-29
-3.36372e-24
-8.07804e-20
5.65071e-14
7.5011e-08
-7.66896e-29
-3.36393e-24
-8.08045e-20
5.64939e-14
7.50016e-08
-7.67e-29
-3.36447e-24
-8.08845e-20
5.6448e-14
7.49704e-08
-7.67007e-29
-3.36451e-24
-8.08927e-20
5.6443e-14
7.49668e-08
-7.67024e-29
-3.36462e-24
-8.09126e-20
5.64308e-14
7.49585e-08
-7.67024e-29
-3.36462e-24
-8.09126e-20
5.64308e-14
7.49585e-08
-7.67007e-29
-3.36451e-24
-8.08927e-20
5.6443e-14
7.49668e-08
-7.67e-29
-3.36447e-24
-8.08845e-20
5.6448e-14
7.49704e-08
-7.66896e-29
-3.36393e-24
-8.08045e-20
5.64939e-14
7.50016e-08
-7.66855e-29
-3.36372e-24
-8.07804e-20
5.65071e-14
7.5011e-08
-7.66195e-29
-3.36079e-24
-8.05382e-20
5.66121e-14
7.50757e-08
-7.65923e-29
-3.35964e-24
-8.0468e-20
5.66358e-14
7.50905e-08
-7.59003e-29
-3.33132e-24
-7.93906e-20
5.66548e-14
7.49676e-08
-7.56961e-29
-3.32307e-24
-7.91119e-20
5.66417e-14
7.49293e-08
-6.88231e-29
-3.04784e-24
-7.22797e-20
5.37783e-14
7.11644e-08
-6.87326e-29
-2.95365e-24
2.80226e-20
1.51731e-13
1.66444e-07
-7.56032e-29
-3.22645e-24
2.38966e-20
1.57302e-13
1.72432e-07
-7.58076e-29
-3.23475e-24
2.35893e-20
1.57315e-13
1.72482e-07
-7.65002e-29
-3.26359e-24
2.21678e-20
1.57176e-13
1.72618e-07
-7.65276e-29
-3.26482e-24
2.20378e-20
1.57118e-13
1.72587e-07
-7.65939e-29
-3.26809e-24
2.15233e-20
1.56855e-13
1.7245e-07
-7.65981e-29
-3.26833e-24
2.14684e-20
1.56824e-13
1.72431e-07
-7.66087e-29
-3.26902e-24
2.12742e-20
1.5671e-13
1.72367e-07
-7.66094e-29
-3.26908e-24
2.12544e-20
1.56698e-13
1.7236e-07
-7.66112e-29
-3.26922e-24
2.12042e-20
1.56667e-13
1.72343e-07
-7.66112e-29
-3.26922e-24
2.12042e-20
1.56667e-13
1.72343e-07
-7.66094e-29
-3.26908e-24
2.12544e-20
1.56698e-13
1.7236e-07
-7.66087e-29
-3.26902e-24
2.12742e-20
1.5671e-13
1.72367e-07
-7.65981e-29
-3.26833e-24
2.14684e-20
1.56824e-13
1.72431e-07
-7.65939e-29
-3.26809e-24
2.15233e-20
1.56855e-13
1.7245e-07
-7.65276e-29
-3.26482e-24
2.20378e-20
1.57118e-13
1.72587e-07
-7.65002e-29
-3.26359e-24
2.21678e-20
1.57176e-13
1.72618e-07
-7.58076e-29
-3.23475e-24
2.35893e-20
1.57315e-13
1.72482e-07
-7.56032e-29
-3.22645e-24
2.38966e-20
1.57302e-13
1.72432e-07
-6.87326e-29
-2.95365e-24
2.80226e-20
1.51731e-13
1.66444e-07
-6.849e-29
-2.72149e-24
2.4834e-19
3.3765e-13
3.15437e-07
-7.53578e-29
-2.99112e-24
2.47522e-19
3.46065e-13
3.22895e-07
-7.55626e-29
-2.99959e-24
2.47118e-19
3.46047e-13
3.22936e-07
-7.62572e-29
-3.02982e-24
2.44805e-19
3.45551e-13
3.22965e-07
-7.62848e-29
-3.03123e-24
2.44548e-19
3.45429e-13
3.22909e-07
-7.63522e-29
-3.03534e-24
2.4345e-19
3.44876e-13
3.22662e-07
-7.63565e-29
-3.03567e-24
2.43331e-19
3.44811e-13
3.22629e-07
-7.63676e-29
-3.0367e-24
2.42895e-19
3.44575e-13
3.22517e-07
-7.63683e-29
-3.0368e-24
2.4285e-19
3.4455e-13
3.22505e-07
-7.63702e-29
-3.03703e-24
2.42736e-19
3.44487e-13
3.22475e-07
-7.63702e-29
-3.03703e-24
2.42736e-19
3.44487e-13
3.22475e-07
-7.63683e-29
-3.0368e-24
2.4285e-19
3.4455e-13
3.22505e-07
-7.63676e-29
-3.0367e-24
2.42895e-19
3.44575e-13
3.22517e-07
-7.63565e-29
-3.03567e-24
2.43331e-19
3.44811e-13
3.22629e-07
-7.63522e-29
-3.03534e-24
2.4345e-19
3.44876e-13
3.22662e-07
-7.62848e-29
-3.03123e-24
2.44548e-19
3.45429e-13
3.22909e-07
-7.62572e-29
-3.02982e-24
2.44805e-19
3.45551e-13
3.22965e-07
-7.55626e-29
-2.99959e-24
2.47118e-19
3.46047e-13
3.22936e-07
-7.53578e-29
-2.99112e-24
2.47522e-19
3.46065e-13
3.22895e-07
-6.849e-29
-2.72149e-24
2.4834e-19
3.3765e-13
3.15437e-07
-6.79234e-29
-2.22782e-24
6.65592e-19
6.4229e-13
5.16041e-07
-7.47903e-29
-2.49523e-24
6.67269e-19
6.52588e-13
5.23563e-07
-7.49959e-29
-2.50411e-24
6.66635e-19
6.52482e-13
5.23563e-07
-7.56954e-29
-2.53754e-24
6.62426e-19
6.51224e-13
5.23303e-07
-7.57236e-29
-2.53933e-24
6.61932e-19
6.50998e-13
5.23211e-07
-7.57936e-29
-2.5452e-24
6.59742e-19
6.4997e-13
5.22805e-07
-7.57982e-29
-2.54572e-24
6.59505e-19
6.49853e-13
5.22755e-07
-7.58103e-29
-2.54747e-24
6.58621e-19
6.49419e-13
5.22577e-07
-7.58111e-29
-2.54764e-24
6.58532e-19
6.49374e-13
5.22558e-07
-7.58133e-29
-2.54806e-24
6.58299e-19
6.49259e-13
5.22511e-07
-7.58133e-29
-2.54806e-24
6.58299e-19
6.49259e-13
5.22511e-07
-7.58111e-29
-2.54764e-24
6.58532e-19
6.49374e-13
5.22558e-07
-7.58103e-29
-2.54747e-24
6.58621e-19
6.49419e-13
5.22577e-07
-7.57982e-29
-2.54572e-24
6.59505e-19
6.49853e-13
5.22755e-07
-7.57936e-29
-2.5452e-24
6.59742e-19
6.4997e-13
5.22805e-07
-7.57236e-29
-2.53933e-24
6.61932e-19
6.50998e-13
5.23211e-07
-7.56954e-29
-2.53754e-24
6.62426e-19
6.51224e-13
5.23303e-07
-7.49959e-29
-2.50411e-24
6.66635e-19
6.52482e-13
5.23563e-07
-7.47903e-29
-2.49523e-24
6.67269e-19
6.52588e-13
5.23563e-07
-6.79234e-29
-2.22782e-24
6.65592e-19
6.4229e-13
5.16041e-07
-6.67402e-29
-1.28988e-24
1.37386e-18
1.09195e-12
7.60576e-07
-7.36143e-29
-1.55982e-24
1.37486e-18
1.102e-12
7.66589e-07
-7.38215e-29
-1.56954e-24
1.37377e-18
1.10172e-12
7.66515e-07
-7.45318e-29
-1.60942e-24
1.36605e-18
1.09912e-12
7.65751e-07
-7.45611e-29
-1.61192e-24
1.36515e-18
1.09874e-12
7.65612e-07
-7.46365e-29
-1.62111e-24
1.36112e-18
1.097e-12
7.64989e-07
-7.46416e-29
-1.62198e-24
1.36068e-18
1.0968e-12
7.64917e-07
-7.46559e-29
-1.62508e-24
1.35905e-18
1.09608e-12
7.64652e-07
-7.4657e-29
-1.62537e-24
1.35888e-18
1.096e-12
7.64625e-07
-7.46597e-29
-1.62615e-24
1.35845e-18
1.09581e-12
7.64554e-07
-7.46597e-29
-1.62615e-24
1.35845e-18
1.09581e-12
7.64554e-07
-7.4657e-29
-1.62537e-24
1.35888e-18
1.096e-12
7.64625e-07
-7.46559e-29
-1.62508e-24
1.35905e-18
1.09608e-12
7.64652e-07
-7.46416e-29
-1.62198e-24
1.36068e-18
1.0968e-12
7.64917e-07
-7.46365e-29
-1.62111e-24
1.36112e-18
1.097e-12
7.64989e-07
-7.45611e-29
-1.61192e-24
1.36515e-18
1.09874e-12
7.65612e-07
-7.45317e-29
-1.60942e-24
1.36605e-18
1.09912e-12
7.65751e-07
-7.38215e-29
-1.56954e-24
1.37377e-18
1.10172e-12
7.66515e-07
-7.36143e-29
-1.55982e-24
1.37486e-18
1.102e-12
7.66589e-07
-6.67402e-29
-1.28988e-24
1.37386e-18
1.09195e-12
7.60576e-07
-6.45278e-29
2.73835e-25
2.37144e-18
1.5395e-12
7.57806e-07
-7.14271e-29
-7.14469e-27
2.36862e-18
1.54935e-12
7.63888e-07
-7.16373e-29
-1.83328e-26
2.36686e-18
1.54891e-12
7.63817e-07
-7.23681e-29
-6.93119e-26
2.35403e-18
1.54499e-12
7.63077e-07
-7.23996e-29
-7.29918e-26
2.35258e-18
1.54445e-12
7.6294e-07
-7.24851e-29
-8.76915e-26
2.34595e-18
1.54201e-12
7.62327e-07
-7.24912e-29
-8.91293e-26
2.34524e-18
1.54174e-12
7.62256e-07
-7.25095e-29
-9.44504e-26
2.34255e-18
1.54072e-12
7.61995e-07
-7.25109e-29
-9.49598e-26
2.34229e-18
1.54062e-12
7.61968e-07
-7.25148e-29
-9.63277e-26
2.34157e-18
1.54035e-12
7.61899e-07
-7.25148e-29
-9.63277e-26
2.34157e-18
1.54035e-12
7.61899e-07
-7.25109e-29
-9.49598e-26
2.34229e-18
1.54062e-12
7.61968e-07
-7.25095e-29
-9.44503e-26
2.34255e-18
1.54072e-12
7.61995e-07
-7.24912e-29
-8.91293e-26
2.34524e-18
1.54174e-12
7.62256e-07
-7.24851e-29
-8.76914e-26
2.34595e-18
1.54201e-12
7.62327e-07
-7.23996e-29
-7.29917e-26
2.35258e-18
1.54445e-12
7.6294e-07
-7.23681e-29
-6.93117e-26
2.35403e-18
1.54499e-12
7.63077e-07
-7.16372e-29
-1.83324e-26
2.36686e-18
1.54891e-12
7.63817e-07
-7.1427e-29
-7.1441e-27
2.36862e-18
1.54935e-12
7.63888e-07
-6.45278e-29
2.73835e-25
2.37144e-18
1.5395e-12
7.57806e-07
-6.07536e-29
2.64357e-24
3.65657e-18
1.98495e-12
7.55101e-07
-6.771e-29
2.33927e-24
3.6468e-18
1.99463e-12
7.61248e-07
-6.79253e-29
2.32578e-24
3.64417e-18
1.99402e-12
7.61182e-07
-6.8692e-29
2.25767e-24
3.62467e-18
1.9888e-12
7.60463e-07
-6.87272e-29
2.25222e-24
3.62251e-18
1.98812e-12
7.60328e-07
-6.88296e-29
2.2292e-24
3.61254e-18
1.98498e-12
7.59725e-07
-6.88375e-29
2.22691e-24
3.61149e-18
1.98464e-12
7.59655e-07
-6.88626e-29
2.21824e-24
3.60745e-18
1.98334e-12
7.59398e-07
-6.88647e-29
2.21741e-24
3.60706e-18
1.98321e-12
7.59372e-07
-6.88703e-29
2.21516e-24
3.60599e-18
1.98286e-12
7.59303e-07
-6.88703e-29
2.21516e-24
3.60599e-18
1.98286e-12
7.59303e-07
-6.88647e-29
2.21741e-24
3.60706e-18
1.98321e-12
7.59372e-07
-6.88626e-29
2.21824e-24
3.60745e-18
1.98334e-12
7.59398e-07
-6.88375e-29
2.22691e-24
3.61149e-18
1.98464e-12
7.59655e-07
-6.88296e-29
2.2292e-24
3.61254e-18
1.98498e-12
7.59725e-07
-6.87271e-29
2.25222e-24
3.62251e-18
1.98812e-12
7.60328e-07
-6.8692e-29
2.25767e-24
3.62467e-18
1.9888e-12
7.60463e-07
-6.79253e-29
2.32578e-24
3.64417e-18
1.99402e-12
7.61182e-07
-6.771e-29
2.33927e-24
3.6468e-18
1.99463e-12
7.61248e-07
-6.07536e-29
2.64357e-24
3.65657e-18
1.98495e-12
7.55101e-07
-5.47664e-29
5.99823e-24
5.22741e-18
2.4282e-12
7.52451e-07
-6.18294e-29
5.65452e-24
5.20759e-18
2.43776e-12
7.58662e-07
-6.20528e-29
5.63774e-24
5.20387e-18
2.43699e-12
7.586e-07
-6.28771e-29
5.5451e-24
5.17617e-18
2.4305e-12
7.57902e-07
-6.2918e-29
5.53716e-24
5.17315e-18
2.42967e-12
7.5777e-07
-6.30473e-29
5.50242e-24
5.15913e-18
2.42584e-12
7.57176e-07
-6.30579e-29
5.49894e-24
5.15766e-18
2.42543e-12
7.57107e-07
-6.30938e-29
5.48555e-24
5.15198e-18
2.42385e-12
7.56854e-07
-6.30969e-29
5.48427e-24
5.15143e-18
2.42369e-12
7.56828e-07
-6.31054e-29
5.48077e-24
5.14993e-18
2.42327e-12
7.56761e-07
-6.31054e-29
5.48077e-24
5.14993e-18
2.42327e-12
7.56761e-07
-6.30969e-29
5.48427e-24
5.15143e-18
2.42369e-12
7.56828e-07
-6.30938e-29
5.48555e-24
5.15198e-18
2.42385e-12
7.56854e-07
-6.30579e-29
5.49894e-24
5.15766e-18
2.42543e-12
7.57107e-07
-6.30473e-29
5.50242e-24
5.15913e-18
2.42584e-12
7.57176e-07
-6.2918e-29
5.53716e-24
5.17315e-18
2.42967e-12
7.5777e-07
-6.28771e-29
5.5451e-24
5.17617e-18
2.4305e-12
7.57902e-07
-6.20528e-29
5.63774e-24
5.20387e-18
2.43699e-12
7.586e-07
-6.18294e-29
5.65452e-24
5.20759e-18
2.43776e-12
7.58662e-07
-5.47664e-29
5.99823e-24
5.22741e-18
2.4282e-12
7.52451e-07
-4.57964e-29
1.05153e-23
7.08201e-18
2.86919e-12
7.49853e-07
-5.30371e-29
1.01123e-23
7.04906e-18
2.87866e-12
7.56126e-07
-5.32727e-29
1.00911e-23
7.04406e-18
2.87774e-12
7.56067e-07
-5.4184e-29
9.96519e-24
7.00665e-18
2.87e-12
7.55391e-07
-5.42333e-29
9.95394e-24
7.00263e-18
2.86903e-12
7.55261e-07
-5.44028e-29
9.90346e-24
6.98384e-18
2.86452e-12
7.54676e-07
-5.44174e-29
9.89838e-24
6.98189e-18
2.86404e-12
7.54608e-07
-5.44694e-29
9.87868e-24
6.97428e-18
2.86218e-12
7.54359e-07
-5.4474e-29
9.8768e-24
6.97355e-18
2.862e-12
7.54333e-07
-5.44867e-29
9.87163e-24
6.97154e-18
2.86151e-12
7.54267e-07
-5.44867e-29
9.87163e-24
6.97154e-18
2.86151e-12
7.54267e-07
-5.4474e-29
9.8768e-24
6.97355e-18
2.862e-12
7.54333e-07
-5.44694e-29
9.87868e-24
6.97428e-18
2.86218e-12
7.54359e-07
-5.44174e-29
9.89838e-24
6.98189e-18
2.86404e-12
7.54608e-07
-5.44028e-29
9.90346e-24
6.98384e-18
2.86452e-12
7.54676e-07
-5.42332e-29
9.95394e-24
7.00263e-18
2.86903e-12
7.55261e-07
-5.41839e-29
9.96519e-24
7.00665e-18
2.87e-12
7.55391e-07
-5.32726e-29
1.00911e-23
7.04406e-18
2.87774e-12
7.56067e-07
-5.30371e-29
1.01123e-23
7.04906e-18
2.87866e-12
7.56126e-07
-4.57964e-29
1.05153e-23
7.08201e-18
2.86919e-12
7.49853e-07
-3.29558e-29
1.63709e-23
9.21835e-18
3.30784e-12
7.47302e-07
-4.04709e-29
1.58849e-23
9.1692e-18
3.31726e-12
7.53636e-07
-4.07239e-29
1.58579e-23
9.16273e-18
3.3162e-12
7.53581e-07
-4.17603e-29
1.56887e-23
9.11415e-18
3.30723e-12
7.52925e-07
-4.18216e-29
1.56732e-23
9.10898e-18
3.30612e-12
7.52797e-07
-4.20485e-29
1.56024e-23
9.08473e-18
3.30095e-12
7.52221e-07
-4.20688e-29
1.55953e-23
9.08222e-18
3.3004e-12
7.52154e-07
-4.21437e-29
1.55674e-23
9.07241e-18
3.29827e-12
7.51909e-07
-4.21504e-29
1.55648e-23
9.07146e-18
3.29806e-12
7.51884e-07
-4.21691e-29
1.55575e-23
9.06887e-18
3.29749e-12
7.51818e-07
-4.21691e-29
1.55575e-23
9.06887e-18
3.29749e-12
7.51818e-07
-4.21504e-29
1.55648e-23
9.07146e-18
3.29806e-12
7.51884e-07
-4.21437e-29
1.55674e-23
9.07241e-18
3.29827e-12
7.51909e-07
-4.20688e-29
1.55953e-23
9.08222e-18
3.3004e-12
7.52154e-07
-4.20485e-29
1.56024e-23
9.08473e-18
3.30095e-12
7.52221e-07
-4.18216e-29
1.56732e-23
9.10898e-18
3.30612e-12
7.52797e-07
-4.17603e-29
1.56887e-23
9.11415e-18
3.30723e-12
7.52925e-07
-4.07239e-29
1.58579e-23
9.16273e-18
3.3162e-12
7.53581e-07
-4.04709e-29
1.58849e-23
9.1692e-18
3.31726e-12
7.53636e-07
-3.29558e-29
1.63709e-23
9.21835e-18
3.30784e-12
7.47302e-07
-1.52397e-29
2.37394e-23
1.16343e-17
3.74408e-12
7.44796e-07
-2.31555e-29
2.31431e-23
1.15659e-17
3.75349e-12
7.51189e-07
-2.34325e-29
2.31087e-23
1.15578e-17
3.75228e-12
7.51138e-07
-2.4642e-29
2.2885e-23
1.14966e-17
3.74212e-12
7.50501e-07
-2.47198e-29
2.28642e-23
1.14902e-17
3.74087e-12
7.50375e-07
-2.50255e-29
2.27679e-23
1.14598e-17
3.73504e-12
7.49808e-07
-2.50537e-29
2.27582e-23
1.14566e-17
3.73442e-12
7.49742e-07
-2.51599e-29
2.27201e-23
1.14443e-17
3.73203e-12
7.495e-07
-2.51696e-29
2.27165e-23
1.14432e-17
3.73179e-12
7.49475e-07
-2.51966e-29
2.27065e-23
1.14399e-17
3.73116e-12
7.49411e-07
-2.51966e-29
2.27065e-23
1.14399e-17
3.73116e-12
7.49411e-07
-2.51696e-29
2.27165e-23
1.14432e-17
3.73179e-12
7.49475e-07
-2.51599e-29
2.27201e-23
1.14443e-17
3.73203e-12
7.495e-07
-2.50537e-29
2.27582e-23
1.14566e-17
3.73442e-12
7.49742e-07
-2.50255e-29
2.27679e-23
1.14598e-17
3.73504e-12
7.49808e-07
-2.47198e-29
2.28642e-23
1.14902e-17
3.74087e-12
7.50375e-07
-2.4642e-29
2.2885e-23
1.14966e-17
3.74212e-12
7.50501e-07
-2.34324e-29
2.31087e-23
1.15578e-17
3.75228e-12
7.51138e-07
-2.31554e-29
2.31431e-23
1.15659e-17
3.75349e-12
7.51189e-07
-1.52397e-29
2.37394e-23
1.16343e-17
3.74408e-12
7.44796e-07
8.47372e-30
3.2794e-23
1.43277e-17
4.17782e-12
7.4233e-07
-2.67781e-33
3.20559e-23
1.42371e-17
4.18726e-12
7.4878e-07
-3.1177e-31
3.20125e-23
1.42271e-17
4.18591e-12
7.48733e-07
-1.75336e-30
3.17219e-23
1.41519e-17
4.17458e-12
7.48116e-07
-1.85306e-30
3.16945e-23
1.41441e-17
4.1732e-12
7.47992e-07
-2.26402e-30
3.1567e-23
1.41068e-17
4.16672e-12
7.47433e-07
-2.30256e-30
3.15542e-23
1.4103e-17
4.16604e-12
7.47368e-07
-2.45076e-30
3.15037e-23
1.4088e-17
4.16338e-12
7.4713e-07
-2.46432e-30
3.14989e-23
1.40865e-17
4.16312e-12
7.47105e-07
-2.50237e-30
3.14856e-23
1.40826e-17
4.16241e-12
7.47042e-07
-2.50237e-30
3.14856e-23
1.40826e-17
4.16241e-12
7.47042e-07
-2.46432e-30
3.14989e-23
1.40865e-17
4.16312e-12
7.47105e-07
-2.45076e-30
3.15037e-23
1.4088e-17
4.16338e-12
7.4713e-07
-2.30256e-30
3.15542e-23
1.4103e-17
4.16604e-12
7.47368e-07
-2.26402e-30
3.1567e-23
1.41068e-17
4.16672e-12
7.47433e-07
-1.85306e-30
3.16945e-23
1.41441e-17
4.1732e-12
7.47992e-07
-1.75334e-30
3.17219e-23
1.41519e-17
4.17458e-12
7.48116e-07
-3.11744e-31
3.20125e-23
1.42271e-17
4.18591e-12
7.48733e-07
-2.64032e-33
3.20559e-23
1.42371e-17
4.18726e-12
7.4878e-07
8.47372e-30
3.2794e-23
1.43277e-17
4.17782e-12
7.4233e-07
3.94224e-29
4.3706e-23
1.72963e-17
4.60898e-12
7.39899e-07
3.01875e-29
4.27909e-23
1.71804e-17
4.61849e-12
7.46406e-07
2.98366e-29
4.27367e-23
1.71684e-17
4.61701e-12
7.46363e-07
2.8092e-29
4.23655e-23
1.70779e-17
4.60454e-12
7.45765e-07
2.79639e-29
4.23304e-23
1.70685e-17
4.60302e-12
7.45642e-07
2.7416e-29
4.21653e-23
1.70237e-17
4.59591e-12
7.45091e-07
2.7364e-29
4.21488e-23
1.70192e-17
4.59516e-12
7.45027e-07
2.71613e-29
4.20833e-23
1.70011e-17
4.59225e-12
7.44793e-07
2.71427e-29
4.20771e-23
1.69994e-17
4.59196e-12
7.44769e-07
2.70903e-29
4.20599e-23
1.69946e-17
4.59119e-12
7.44706e-07
2.70903e-29
4.20599e-23
1.69946e-17
4.59119e-12
7.44706e-07
2.71427e-29
4.20771e-23
1.69994e-17
4.59196e-12
7.44769e-07
2.71613e-29
4.20833e-23
1.70011e-17
4.59225e-12
7.44793e-07
2.7364e-29
4.21488e-23
1.70192e-17
4.59516e-12
7.45027e-07
2.7416e-29
4.21653e-23
1.70237e-17
4.59591e-12
7.45091e-07
2.79639e-29
4.23304e-23
1.70685e-17
4.60302e-12
7.45642e-07
2.8092e-29
4.23655e-23
1.70779e-17
4.60454e-12
7.45765e-07
2.98366e-29
4.27367e-23
1.71684e-17
4.61701e-12
7.46363e-07
3.01875e-29
4.27909e-23
1.71804e-17
4.61849e-12
7.46406e-07
3.94224e-29
4.3706e-23
1.72963e-17
4.60898e-12
7.39899e-07
7.896e-29
5.66452e-23
2.05378e-17
5.03748e-12
7.37497e-07
6.87265e-29
5.5514e-23
2.03935e-17
5.04709e-12
7.4406e-07
6.83223e-29
5.54471e-23
2.03794e-17
5.04548e-12
7.4402e-07
6.61907e-29
5.49804e-23
2.02722e-17
5.0319e-12
7.4344e-07
6.60266e-29
5.49361e-23
2.02611e-17
5.03026e-12
7.4332e-07
6.53043e-29
5.47268e-23
2.02082e-17
5.02253e-12
7.42777e-07
6.52353e-29
5.47059e-23
2.02029e-17
5.02171e-12
7.42714e-07
6.49632e-29
5.46227e-23
2.01816e-17
5.01854e-12
7.42483e-07
6.49383e-29
5.46149e-23
2.01795e-17
5.01823e-12
7.42459e-07
6.48676e-29
5.4593e-23
2.01739e-17
5.01739e-12
7.42397e-07
6.48676e-29
5.4593e-23
2.01739e-17
5.01739e-12
7.42397e-07
6.49383e-29
5.46149e-23
2.01795e-17
5.01823e-12
7.42459e-07
6.49632e-29
5.46227e-23
2.01816e-17
5.01854e-12
7.42483e-07
6.52353e-29
5.47059e-23
2.02029e-17
5.02171e-12
7.42714e-07
6.53043e-29
5.47268e-23
2.02082e-17
5.02253e-12
7.42777e-07
6.60267e-29
5.49361e-23
2.02611e-17
5.03026e-12
7.4332e-07
6.61907e-29
5.49804e-23
2.02722e-17
5.0319e-12
7.4344e-07
6.83223e-29
5.54471e-23
2.03794e-17
5.04548e-12
7.4402e-07
6.87265e-29
5.5514e-23
2.03935e-17
5.04709e-12
7.4406e-07
7.896e-29
5.66452e-23
2.05378e-17
5.03748e-12
7.37497e-07
1.28555e-28
7.17797e-23
2.40496e-17
5.46321e-12
7.35094e-07
1.17036e-28
7.03893e-23
2.3874e-17
5.47296e-12
7.41711e-07
1.16565e-28
7.03075e-23
2.38576e-17
5.47123e-12
7.41675e-07
1.13949e-28
6.97294e-23
2.37325e-17
5.45656e-12
7.41114e-07
1.1374e-28
6.96746e-23
2.37196e-17
5.4548e-12
7.40995e-07
1.128e-28
6.94137e-23
2.3658e-17
5.44646e-12
7.4046e-07
1.12709e-28
6.93878e-23
2.36517e-17
5.44558e-12
7.40398e-07
1.12351e-28
6.92839e-23
2.36269e-17
5.44216e-12
7.4017e-07
1.12318e-28
6.92742e-23
2.36245e-17
5.44183e-12
7.40147e-07
1.12224e-28
6.92469e-23
2.3618e-17
5.44093e-12
7.40086e-07
1.12224e-28
6.92469e-23
2.3618e-17
5.44093e-12
7.40086e-07
1.12318e-28
6.92742e-23
2.36245e-17
5.44183e-12
7.40147e-07
1.12351e-28
6.92839e-23
2.36269e-17
5.44216e-12
7.4017e-07
1.12709e-28
6.93878e-23
2.36517e-17
5.44558e-12
7.40398e-07
1.128e-28
6.94137e-23
2.3658e-17
5.44646e-12
7.4046e-07
1.1374e-28
6.96746e-23
2.37196e-17
5.4548e-12
7.40995e-07
1.13949e-28
6.97294e-23
2.37325e-17
5.45656e-12
7.41114e-07
1.16565e-28
7.03075e-23
2.38576e-17
5.47123e-12
7.41675e-07
1.17036e-28
7.03893e-23
2.3874e-17
5.47296e-12
7.41711e-07
1.28555e-28
7.17797e-23
2.40496e-17
5.46321e-12
7.35094e-07
-4.20431e-06
-8.57092e-07
-2.77852e-08
-1.88593e-10
-2.39427e-13
2.13961e-16
2.80041e-16
2.80532e-16
2.8064e-16
2.80656e-16
2.80676e-16
2.80777e-16
2.81327e-16
2.82032e-16
2.8804e-16
2.93394e-16
3.50673e-16
3.82676e-16
1.20225e-15
1.40812e-15
-4.00871e-06
-8.74549e-07
-2.96528e-08
-2.09206e-10
-2.76257e-13
2.01534e-16
2.80025e-16
2.80526e-16
2.80636e-16
2.80652e-16
2.80657e-16
2.8074e-16
2.813e-16
2.82017e-16
2.8812e-16
2.93533e-16
3.51512e-16
3.83719e-16
1.21228e-15
1.42033e-15
-4.00743e-06
-8.74983e-07
-2.96723e-08
-2.09396e-10
-2.7661e-13
2.01395e-16
2.80025e-16
2.80527e-16
2.80636e-16
2.80652e-16
2.80657e-16
2.80742e-16
2.81303e-16
2.8202e-16
2.88125e-16
2.93539e-16
3.51529e-16
3.83737e-16
1.21238e-15
1.42042e-15
-4.00197e-06
-8.75838e-07
-2.96737e-08
-2.0933e-10
-2.76562e-13
2.0132e-16
2.80024e-16
2.80527e-16
2.80637e-16
2.80653e-16
2.8066e-16
2.80752e-16
2.81315e-16
2.82032e-16
2.88143e-16
2.93561e-16
3.51582e-16
3.83794e-16
1.21267e-15
1.42068e-15
-4.00268e-06
-8.75875e-07
-2.96703e-08
-2.09287e-10
-2.76483e-13
2.01342e-16
2.80024e-16
2.80527e-16
2.80637e-16
2.80653e-16
2.8066e-16
2.80753e-16
2.81315e-16
2.82032e-16
2.88144e-16
2.93561e-16
3.51584e-16
3.83796e-16
1.21268e-15
1.42069e-15
-4.00506e-06
-8.75756e-07
-2.96458e-08
-2.09048e-10
-2.76089e-13
2.0145e-16
2.80024e-16
2.80527e-16
2.80637e-16
2.80653e-16
2.8066e-16
2.80753e-16
2.81316e-16
2.82033e-16
2.88145e-16
2.93562e-16
3.51586e-16
3.83798e-16
1.21269e-15
1.4207e-15
-4.00553e-06
-8.75761e-07
-2.96438e-08
-2.09026e-10
-2.7605e-13
2.01461e-16
2.80024e-16
2.80527e-16
2.80637e-16
2.80653e-16
2.8066e-16
2.80753e-16
2.81316e-16
2.82033e-16
2.88145e-16
2.93563e-16
3.51586e-16
3.83799e-16
1.21269e-15
1.4207e-15
-4.00665e-06
-8.75701e-07
-2.96347e-08
-2.08942e-10
-2.75917e-13
2.01498e-16
2.80024e-16
2.80527e-16
2.80637e-16
2.80653e-16
2.8066e-16
2.80753e-16
2.81316e-16
2.82033e-16
2.88145e-16
2.93563e-16
3.51586e-16
3.83799e-16
1.21269e-15
1.4207e-15
-4.00685e-06
-8.75704e-07
-2.9634e-08
-2.08936e-10
-2.75906e-13
2.01501e-16
2.80024e-16
2.80527e-16
2.80637e-16
2.80653e-16
2.8066e-16
2.80753e-16
2.81316e-16
2.82033e-16
2.88145e-16
2.93563e-16
3.51586e-16
3.83799e-16
1.21269e-15
1.4207e-15
-4.00714e-06
-8.75689e-07
-2.96319e-08
-2.08917e-10
-2.75877e-13
2.01509e-16
2.80024e-16
2.80527e-16
2.80637e-16
2.80653e-16
2.8066e-16
2.80753e-16
2.81316e-16
2.82033e-16
2.88145e-16
2.93563e-16
3.51586e-16
3.83799e-16
1.21269e-15
1.4207e-15
-4.00714e-06
-8.75689e-07
-2.96319e-08
-2.08917e-10
-2.75877e-13
2.01509e-16
2.80024e-16
2.80527e-16
2.80637e-16
2.80653e-16
2.8066e-16
2.80753e-16
2.81316e-16
2.82033e-16
2.88145e-16
2.93563e-16
3.51586e-16
3.83799e-16
1.21269e-15
1.4207e-15
-4.00685e-06
-8.75704e-07
-2.9634e-08
-2.08936e-10
-2.75906e-13
2.01501e-16
2.80024e-16
2.80527e-16
2.80637e-16
2.80653e-16
2.8066e-16
2.80753e-16
2.81316e-16
2.82033e-16
2.88145e-16
2.93563e-16
3.51586e-16
3.83799e-16
1.21269e-15
1.4207e-15
-4.00665e-06
-8.75701e-07
-2.96347e-08
-2.08942e-10
-2.75917e-13
2.01498e-16
2.80024e-16
2.80527e-16
2.80637e-16
2.80653e-16
2.8066e-16
2.80753e-16
2.81316e-16
2.82033e-16
2.88145e-16
2.93563e-16
3.51586e-16
3.83799e-16
1.21269e-15
1.4207e-15
-4.00553e-06
-8.75761e-07
-2.96438e-08
-2.09026e-10
-2.7605e-13
2.01461e-16
2.80024e-16
2.80527e-16
2.80637e-16
2.80653e-16
2.8066e-16
2.80753e-16
2.81316e-16
2.82033e-16
2.88145e-16
2.93563e-16
3.51586e-16
3.83799e-16
1.21269e-15
1.4207e-15
-4.00506e-06
-8.75756e-07
-2.96458e-08
-2.09048e-10
-2.76089e-13
2.0145e-16
2.80024e-16
2.80527e-16
2.80637e-16
2.80653e-16
2.8066e-16
2.80753e-16
2.81316e-16
2.82033e-16
2.88145e-16
2.93562e-16
3.51586e-16
3.83798e-16
1.21269e-15
1.4207e-15
-4.00268e-06
-8.75875e-07
-2.96703e-08
-2.09287e-10
-2.76483e-13
2.01342e-16
2.80024e-16
2.80527e-16
2.80637e-16
2.80653e-16
2.8066e-16
2.80753e-16
2.81315e-16
2.82032e-16
2.88144e-16
2.93561e-16
3.51584e-16
3.83796e-16
1.21268e-15
1.42069e-15
-4.00197e-06
-8.75838e-07
-2.96737e-08
-2.0933e-10
-2.76562e-13
2.0132e-16
2.80024e-16
2.80527e-16
2.80637e-16
2.80653e-16
2.8066e-16
2.80752e-16
2.81315e-16
2.82032e-16
2.88143e-16
2.93561e-16
3.51582e-16
3.83794e-16
1.21267e-15
1.42068e-15
-4.00743e-06
-8.74983e-07
-2.96723e-08
-2.09396e-10
-2.7661e-13
2.01395e-16
2.80025e-16
2.80527e-16
2.80636e-16
2.80652e-16
2.80657e-16
2.80742e-16
2.81303e-16
2.8202e-16
2.88125e-16
2.93539e-16
3.51529e-16
3.83737e-16
1.21238e-15
1.42042e-15
-4.00871e-06
-8.74549e-07
-2.96528e-08
-2.09206e-10
-2.76257e-13
2.01534e-16
2.80025e-16
2.80526e-16
2.80636e-16
2.80652e-16
2.80657e-16
2.8074e-16
2.813e-16
2.82017e-16
2.8812e-16
2.93533e-16
3.51512e-16
3.83719e-16
1.21228e-15
1.42033e-15
-4.20431e-06
-8.57092e-07
-2.77852e-08
-1.88593e-10
-2.39427e-13
2.13961e-16
2.80041e-16
2.80532e-16
2.8064e-16
2.80656e-16
2.80676e-16