/*--------------------------------*- C++ -*----------------------------------*\
  =========                 |
  \\      /  F ield         | OpenFOAM: The Open Source CFD Toolbox
   \\    /   O peration     | Website:  https://openfoam.org
    \\  /    A nd           | Version:  8
     \\/     M anipulation  |
\*---------------------------------------------------------------------------*/
FoamFile
{
    version     2.0;
    format      ascii;
    class       volScalarField;
    location    "2";
    object      p;
}
// * * * * * * * * * * * * * * * * * * * * * * * * * * * * * * * * * * * * * //

dimensions      [0 2 -2 0 0 0 0];

internalField   nonuniform List<scalar> 
180000
(
0.000947274
0.000883487
0.000925272
0.000785703
0.000860755
0.000932708
0.000869175
0.000910663
0.000772487
0.000846307
0.000932069
0.000868566
0.000910023
0.000771956
0.000845702
0.000928158
0.000864808
0.000906097
0.000768654
0.000842013
0.000927811
0.000864479
0.000905748
0.000768366
0.000841684
0.000926268
0.000863006
0.000904193
0.000767076
0.000840224
0.000926109
0.000862854
0.000904031
0.000766943
0.000840071
0.000925499
0.000862273
0.000903416
0.000766433
0.000839492
0.00092544
0.000862216
0.000903355
0.000766383
0.000839434
0.000925278
0.000862062
0.000903192
0.000766248
0.00083928
0.000925278
0.000862062
0.000903192
0.000766248
0.00083928
0.00092544
0.000862216
0.000903355
0.000766383
0.000839434
0.000925499
0.000862273
0.000903416
0.000766433
0.000839492
0.000926109
0.000862854
0.000904031
0.000766943
0.000840071
0.000926268
0.000863006
0.000904193
0.000767076
0.000840224
0.000927811
0.000864479
0.000905748
0.000768366
0.000841684
0.000928158
0.000864808
0.000906097
0.000768654
0.000842013
0.000932069
0.000868566
0.000910023
0.000771956
0.000845702
0.000932708
0.000869175
0.000910663
0.000772487
0.000846307
0.000947274
0.000883487
0.000925272
0.000785703
0.000860755
0.000753573
0.000727111
0.000745409
0.000677609
0.000717139
0.000747955
0.000720624
0.000739433
0.000670326
0.000710244
0.000747704
0.000720343
0.000739167
0.000670029
0.000709951
0.000746121
0.000718567
0.000737485
0.000668143
0.000708117
0.000745981
0.000718412
0.000737335
0.00066798
0.000707954
0.00074535
0.00071771
0.000736662
0.000667239
0.000707223
0.000745285
0.000717638
0.000736593
0.000667162
0.000707147
0.000745034
0.000717359
0.000736325
0.000666869
0.000706856
0.000745009
0.000717332
0.000736299
0.00066684
0.000706827
0.000744943
0.000717258
0.000736228
0.000666762
0.000706749
0.000744943
0.000717258
0.000736228
0.000666762
0.000706749
0.000745009
0.000717332
0.000736299
0.00066684
0.000706827
0.000745034
0.000717359
0.000736325
0.000666869
0.000706856
0.000745285
0.000717638
0.000736593
0.000667162
0.000707147
0.00074535
0.00071771
0.000736662
0.000667239
0.000707223
0.000745981
0.000718412
0.000737335
0.00066798
0.000707954
0.000746121
0.000718567
0.000737485
0.000668143
0.000708117
0.000747704
0.000720343
0.000739167
0.000670029
0.000709951
0.000747955
0.000720624
0.000739433
0.000670326
0.000710244
0.000753573
0.000727111
0.000745409
0.000677609
0.000717139
0.000543173
0.000521263
0.000536814
0.000482319
0.000516357
0.00053844
0.000516136
0.000531904
0.000476931
0.000510992
0.00053823
0.000515915
0.000531687
0.000476711
0.000510764
0.000536872
0.000514481
0.000530278
0.000475278
0.000509301
0.000536754
0.000514357
0.000530155
0.000475156
0.000509172
0.000536213
0.00051379
0.000529592
0.000474592
0.000508589
0.000536158
0.000513733
0.000529534
0.000474535
0.000508529
0.000535943
0.000513508
0.00052931
0.000474311
0.000508296
0.000535923
0.000513486
0.000529288
0.000474289
0.000508273
0.000535866
0.000513427
0.000529229
0.00047423
0.000508211
0.000535866
0.000513427
0.000529229
0.00047423
0.000508211
0.000535923
0.000513486
0.000529288
0.000474289
0.000508273
0.000535943
0.000513508
0.00052931
0.000474311
0.000508296
0.000536158
0.000513733
0.000529534
0.000474535
0.000508529
0.000536213
0.00051379
0.000529592
0.000474592
0.000508589
0.000536754
0.000514357
0.000530155
0.000475156
0.000509172
0.000536872
0.000514481
0.000530278
0.000475278
0.000509301
0.00053823
0.000515915
0.000531687
0.000476711
0.000510764
0.00053844
0.000516136
0.000531904
0.000476931
0.000510992
0.000543173
0.000521263
0.000536814
0.000482319
0.000516357
0.000512499
0.000485712
0.000504749
0.000441285
0.000482879
0.000506566
0.000479697
0.000498743
0.000435469
0.000476731
0.000506302
0.000479437
0.000498476
0.00043523
0.000476468
0.000504601
0.000477748
0.000496751
0.000433666
0.000474776
0.000504453
0.000477603
0.0004966
0.000433533
0.000474627
0.000503778
0.000476937
0.000495913
0.000432918
0.000473954
0.000503709
0.00047687
0.000495843
0.000432856
0.000473884
0.000503442
0.000476606
0.000495569
0.000432612
0.000473616
0.000503416
0.000476581
0.000495543
0.000432589
0.00047359
0.000503345
0.000476511
0.00049547
0.000432524
0.000473519
0.000503345
0.000476511
0.00049547
0.000432524
0.000473519
0.000503416
0.000476581
0.000495543
0.000432589
0.00047359
0.000503442
0.000476606
0.000495569
0.000432612
0.000473616
0.000503709
0.00047687
0.000495843
0.000432856
0.000473884
0.000503778
0.000476937
0.000495913
0.000432918
0.000473954
0.000504453
0.000477603
0.0004966
0.000433533
0.000474627
0.000504601
0.000477748
0.000496751
0.000433666
0.000474776
0.000506302
0.000479437
0.000498476
0.00043523
0.000476468
0.000506566
0.000479697
0.000498743
0.000435469
0.000476731
0.000512499
0.000485712
0.000504749
0.000441285
0.000482879
0.000536727
0.000508434
0.000528897
0.000461118
0.000508499
0.000530488
0.000502099
0.000522577
0.000454994
0.00050205
0.000530207
0.000501823
0.000522293
0.000454741
0.00050177
0.00052839
0.000500016
0.00052045
0.000453067
0.00049996
0.000528232
0.000499861
0.000520289
0.000452925
0.000499802
0.00052751
0.000499148
0.000519554
0.000452267
0.000499081
0.000527437
0.000499076
0.000519478
0.0004522
0.000499006
0.00052715
0.000498793
0.000519186
0.000451939
0.000498719
0.000527123
0.000498766
0.000519158
0.000451914
0.000498691
0.000527047
0.000498691
0.00051908
0.000451844
0.000498615
0.000527047
0.000498691
0.00051908
0.000451844
0.000498615
0.000527123
0.000498766
0.000519158
0.000451914
0.000498691
0.00052715
0.000498793
0.000519186
0.000451939
0.000498719
0.000527437
0.000499076
0.000519478
0.0004522
0.000499006
0.00052751
0.000499148
0.000519554
0.000452267
0.000499081
0.000528232
0.000499861
0.000520289
0.000452925
0.000499802
0.00052839
0.000500016
0.00052045
0.000453067
0.00049996
0.000530207
0.000501823
0.000522293
0.000454741
0.00050177
0.000530488
0.000502099
0.000522577
0.000454994
0.00050205
0.000536727
0.000508434
0.000528897
0.000461118
0.000508499
0.000549058
0.00052152
0.000541939
0.000474614
0.000525495
0.000543041
0.000515359
0.000535829
0.000468589
0.00051923
0.000542767
0.000515087
0.000535551
0.000468337
0.000518953
0.000540977
0.000513293
0.00053373
0.000466656
0.000517148
0.000540822
0.00051314
0.000533572
0.000466513
0.000516991
0.000540109
0.00051243
0.000532844
0.000465851
0.000516271
0.000540037
0.000512358
0.00053277
0.000465784
0.000516197
0.000539754
0.000512077
0.00053248
0.000465521
0.00051591
0.000539727
0.00051205
0.000532452
0.000465496
0.000515882
0.000539652
0.000511975
0.000532375
0.000465426
0.000515806
0.000539652
0.000511975
0.000532375
0.000465426
0.000515806
0.000539727
0.00051205
0.000532452
0.000465496
0.000515882
0.000539754
0.000512077
0.00053248
0.000465521
0.00051591
0.000540037
0.000512358
0.00053277
0.000465784
0.000516197
0.000540109
0.00051243
0.000532844
0.000465851
0.000516271
0.000540822
0.00051314
0.000533572
0.000466513
0.000516991
0.000540977
0.000513293
0.00053373
0.000466656
0.000517148
0.000542767
0.000515087
0.000535551
0.000468337
0.000518953
0.000543041
0.000515359
0.000535829
0.000468589
0.00051923
0.000549058
0.00052152
0.000541939
0.000474614
0.000525495
0.000548473
0.000521747
0.00054206
0.0004758
0.000529942
0.000542677
0.0005158
0.000536172
0.000469963
0.000523907
0.000542412
0.000515535
0.000535903
0.000469717
0.000523637
0.000540651
0.000513766
0.000534111
0.000468052
0.000521852
0.0005405
0.000513616
0.000533956
0.000467912
0.000521698
0.000539797
0.000512915
0.000533238
0.000467255
0.000520984
0.000539726
0.000512845
0.000533166
0.000467189
0.000520911
0.000539447
0.000512567
0.00053288
0.000466928
0.000520627
0.00053942
0.000512541
0.000532852
0.000466903
0.000520599
0.000539346
0.000512467
0.000532776
0.000466833
0.000520524
0.000539346
0.000512467
0.000532776
0.000466833
0.000520524
0.00053942
0.000512541
0.000532852
0.000466903
0.000520599
0.000539447
0.000512567
0.00053288
0.000466928
0.000520627
0.000539726
0.000512845
0.000533166
0.000467189
0.000520911
0.000539797
0.000512915
0.000533238
0.000467255
0.000520984
0.0005405
0.000513616
0.000533956
0.000467912
0.000521698
0.000540651
0.000513766
0.000534111
0.000468052
0.000521852
0.000542412
0.000515535
0.000535903
0.000469717
0.000523637
0.000542677
0.0005158
0.000536172
0.000469963
0.000523907
0.000548473
0.000521747
0.00054206
0.0004758
0.000529942
0.000545629
0.000519305
0.000539761
0.000473952
0.000531483
0.000539953
0.000513491
0.000534001
0.000468253
0.000525598
0.000539691
0.000513231
0.000533736
0.00046801
0.000525331
0.000537935
0.000511469
0.00053195
0.000466352
0.00052355
0.000537785
0.00051132
0.000531796
0.000466213
0.000523396
0.000537083
0.00051062
0.00053108
0.000465558
0.000522683
0.000537013
0.000510551
0.000531008
0.000465492
0.00052261
0.000536733
0.000510273
0.000530722
0.000465231
0.000522326
0.000536707
0.000510247
0.000530694
0.000465206
0.000522298
0.000536632
0.000510173
0.000530618
0.000465137
0.000522222
0.000536632
0.000510173
0.000530618
0.000465137
0.000522222
0.000536707
0.000510247
0.000530694
0.000465206
0.000522298
0.000536733
0.000510273
0.000530722
0.000465231
0.000522326
0.000537013
0.000510551
0.000531008
0.000465492
0.00052261
0.000537083
0.00051062
0.00053108
0.000465558
0.000522683
0.000537785
0.00051132
0.000531796
0.000466213
0.000523396
0.000537935
0.000511469
0.00053195
0.000466352
0.00052355
0.000539691
0.000513231
0.000533736
0.00046801
0.000525331
0.000539953
0.000513491
0.000534001
0.000468253
0.000525598
0.000545629
0.000519305
0.000539761
0.000473952
0.000531483
0.000544274
0.000518205
0.00053889
0.000473287
0.00053385
0.000538685
0.000512489
0.000533224
0.000467692
0.000528072
0.000538425
0.000512231
0.000532961
0.000467452
0.000527807
0.000536666
0.000510468
0.000531173
0.000465793
0.000526021
0.000536516
0.00051032
0.00053102
0.000465654
0.000525868
0.000535811
0.000509619
0.000530301
0.000464997
0.000525151
0.000535741
0.000509549
0.000530229
0.000464932
0.000525079
0.00053546
0.000509271
0.000529942
0.00046467
0.000524792
0.000535434
0.000509244
0.000529915
0.000464645
0.000524765
0.000535359
0.00050917
0.000529839
0.000464576
0.000524689
0.000535359
0.00050917
0.000529839
0.000464576
0.000524689
0.000535434
0.000509244
0.000529915
0.000464645
0.000524765
0.00053546
0.000509271
0.000529942
0.00046467
0.000524792
0.000535741
0.000509549
0.000530229
0.000464932
0.000525079
0.000535811
0.000509619
0.000530301
0.000464997
0.000525151
0.000536516
0.00051032
0.00053102
0.000465654
0.000525868
0.000536666
0.000510468
0.000531173
0.000465793
0.000526021
0.000538425
0.000512231
0.000532961
0.000467452
0.000527807
0.000538685
0.000512489
0.000533224
0.000467692
0.000528072
0.000544274
0.000518205
0.00053889
0.000473287
0.00053385
0.000543837
0.00051804
0.000538932
0.000473628
0.000536494
0.000538341
0.000512424
0.000533365
0.000468131
0.000530812
0.000538083
0.000512168
0.000533104
0.000467894
0.000530549
0.000536322
0.000510405
0.000531315
0.000466233
0.000528758
0.000536174
0.000510258
0.000531163
0.000466095
0.000528605
0.000535467
0.000509555
0.000530443
0.000465436
0.000527885
0.000535397
0.000509486
0.000530371
0.000465371
0.000527813
0.000535115
0.000509206
0.000530083
0.000465108
0.000527525
0.000535089
0.00050918
0.000530056
0.000465084
0.000527498
0.000535014
0.000509105
0.000529979
0.000465014
0.000527421
0.000535014
0.000509105
0.000529979
0.000465014
0.000527421
0.000535089
0.00050918
0.000530056
0.000465084
0.000527498
0.000535115
0.000509206
0.000530083
0.000465108
0.000527525
0.000535397
0.000509486
0.000530371
0.000465371
0.000527813
0.000535467
0.000509555
0.000530443
0.000465436
0.000527885
0.000536174
0.000510258
0.000531163
0.000466095
0.000528605
0.000536322
0.000510405
0.000531315
0.000466233
0.000528758
0.000538083
0.000512168
0.000533104
0.000467894
0.000530549
0.000538341
0.000512424
0.000533365
0.000468131
0.000530812
0.000543837
0.00051804
0.000538932
0.000473628
0.000536494
0.00054347
0.000517968
0.000539038
0.000474158
0.000538273
0.000538072
0.000512456
0.000533575
0.000468762
0.000532674
0.000537817
0.000512204
0.000533317
0.000468527
0.000532413
0.000536058
0.000510443
0.000531531
0.000466867
0.000530617
0.00053591
0.000510296
0.000531379
0.000466729
0.000530465
0.000535202
0.000509592
0.000530658
0.000466069
0.000529742
0.000535133
0.000509524
0.000530586
0.000466004
0.000529669
0.00053485
0.000509243
0.000530298
0.00046574
0.00052938
0.000534824
0.000509217
0.000530271
0.000465715
0.000529352
0.000534748
0.000509143
0.000530194
0.000465645
0.000529275
0.000534748
0.000509143
0.000530194
0.000465645
0.000529275
0.000534824
0.000509217
0.000530271
0.000465715
0.000529352
0.00053485
0.000509243
0.000530298
0.00046574
0.00052938
0.000535133
0.000509524
0.000530586
0.000466004
0.000529669
0.000535202
0.000509592
0.000530658
0.000466069
0.000529742
0.00053591
0.000510296
0.000531379
0.000466729
0.000530465
0.000536058
0.000510443
0.000531531
0.000466867
0.000530617
0.000537817
0.000512204
0.000533317
0.000468527
0.000532413
0.000538072
0.000512456
0.000533575
0.000468762
0.000532674
0.00054347
0.000517968
0.000539038
0.000474158
0.000538273
0.000542983
0.000517773
0.00053901
0.00047458
0.000536904
0.000537684
0.000512365
0.000533649
0.000469284
0.000531401
0.000537432
0.000512115
0.000533394
0.000469051
0.000531143
0.000535674
0.000510357
0.00053161
0.000467391
0.00052935
0.000535527
0.000510211
0.00053146
0.000467254
0.000529198
0.000534819
0.000509507
0.000530738
0.000466592
0.000528474
0.000534749
0.000509439
0.000530667
0.000466528
0.000528402
0.000534466
0.000509158
0.000530378
0.000466263
0.000528112
0.00053444
0.000509132
0.000530351
0.000466239
0.000528085
0.000534365
0.000509057
0.000530274
0.000466168
0.000528008
0.000534365
0.000509057
0.000530274
0.000466168
0.000528008
0.00053444
0.000509132
0.000530351
0.000466239
0.000528085
0.000534466
0.000509158
0.000530378
0.000466263
0.000528112
0.000534749
0.000509439
0.000530667
0.000466528
0.000528402
0.000534819
0.000509507
0.000530738
0.000466592
0.000528474
0.000535527
0.000510211
0.00053146
0.000467254
0.000529198
0.000535674
0.000510357
0.00053161
0.000467391
0.00052935
0.000537432
0.000512115
0.000533394
0.000469051
0.000531143
0.000537684
0.000512365
0.000533649
0.000469284
0.000531401
0.000542983
0.000517773
0.00053901
0.00047458
0.000536904
0.000542461
0.000517529
0.000538925
0.000474868
0.000534641
0.000537256
0.000512221
0.000533664
0.00046967
0.000529236
0.000537007
0.000511974
0.000533412
0.00046944
0.000528982
0.000535252
0.000510219
0.000531632
0.000467781
0.000527194
0.000535106
0.000510074
0.000531482
0.000467645
0.000527043
0.000534396
0.00050937
0.00053076
0.000466982
0.00052632
0.000534327
0.000509302
0.000530689
0.000466918
0.000526248
0.000534044
0.00050902
0.000530399
0.000466653
0.000525958
0.000534018
0.000508995
0.000530372
0.000466628
0.000525931
0.000533942
0.00050892
0.000530295
0.000466558
0.000525853
0.000533942
0.00050892
0.000530295
0.000466558
0.000525853
0.000534018
0.000508995
0.000530372
0.000466628
0.000525931
0.000534044
0.00050902
0.000530399
0.000466653
0.000525958
0.000534327
0.000509302
0.000530689
0.000466918
0.000526248
0.000534396
0.00050937
0.00053076
0.000466982
0.00052632
0.000535106
0.000510074
0.000531482
0.000467645
0.000527043
0.000535252
0.000510219
0.000531632
0.000467781
0.000527194
0.000537007
0.000511974
0.000533412
0.00046944
0.000528982
0.000537256
0.000512221
0.000533664
0.00046967
0.000529236
0.000542461
0.000517529
0.000538925
0.000474868
0.000534641
0.000541964
0.000517298
0.000538849
0.000475071
0.000532645
0.000536851
0.000512088
0.000533685
0.000469969
0.000527336
0.000536604
0.000511844
0.000533435
0.000469741
0.000527085
0.000534852
0.000510092
0.000531658
0.000468085
0.000525302
0.000534706
0.000509948
0.000531509
0.00046795
0.000525152
0.000533997
0.000509243
0.000530786
0.000467286
0.000524429
0.000533928
0.000509175
0.000530716
0.000467221
0.000524358
0.000533644
0.000508894
0.000530426
0.000466956
0.000524067
0.000533618
0.000508868
0.000530399
0.000466931
0.00052404
0.000533542
0.000508793
0.000530322
0.000466861
0.000523963
0.000533542
0.000508793
0.000530322
0.000466861
0.000523963
0.000533618
0.000508868
0.000530399
0.000466931
0.00052404
0.000533644
0.000508894
0.000530426
0.000466956
0.000524067
0.000533928
0.000509175
0.000530716
0.000467221
0.000524358
0.000533997
0.000509243
0.000530786
0.000467286
0.000524429
0.000534706
0.000509948
0.000531509
0.00046795
0.000525152
0.000534852
0.000510092
0.000531658
0.000468085
0.000525302
0.000536604
0.000511844
0.000533435
0.000469741
0.000527085
0.000536851
0.000512088
0.000533685
0.000469969
0.000527336
0.000541964
0.000517298
0.000538849
0.000475071
0.000532645
0.000541498
0.00051709
0.000538789
0.000475211
0.000530917
0.000536475
0.000511975
0.00053372
0.000470203
0.000525701
0.000536231
0.000511733
0.000533473
0.000469978
0.000525453
0.000534481
0.000509985
0.000531699
0.000468324
0.000523676
0.000534337
0.000509842
0.000531552
0.000468189
0.000523527
0.000533626
0.000509137
0.000530828
0.000467525
0.000522804
0.000533558
0.000509069
0.000530758
0.000467461
0.000522733
0.000533273
0.000508787
0.000530467
0.000467194
0.000522442
0.000533247
0.000508761
0.000530441
0.00046717
0.000522415
0.000533171
0.000508686
0.000530363
0.000467099
0.000522337
0.000533171
0.000508686
0.000530363
0.000467099
0.000522337
0.000533247
0.000508761
0.000530441
0.00046717
0.000522415
0.000533273
0.000508787
0.000530467
0.000467194
0.000522442
0.000533558
0.000509069
0.000530758
0.000467461
0.000522733
0.000533626
0.000509137
0.000530828
0.000467525
0.000522804
0.000534337
0.000509842
0.000531552
0.000468189
0.000523527
0.000534481
0.000509985
0.000531699
0.000468324
0.000523676
0.000536231
0.000511733
0.000533473
0.000469978
0.000525453
0.000536475
0.000511975
0.00053372
0.000470203
0.000525701
0.000541498
0.00051709
0.000538789
0.000475211
0.000530917
0.000541054
0.000516895
0.000538739
0.000475287
0.000529254
0.000536119
0.000511873
0.000533762
0.000470372
0.000524129
0.000535877
0.000511635
0.000533518
0.000470149
0.000523883
0.000534131
0.00050989
0.000531748
0.000468498
0.000522111
0.000533987
0.000509748
0.000531602
0.000468364
0.000521964
0.000533276
0.000509042
0.000530878
0.000467699
0.000521241
0.000533208
0.000508975
0.000530808
0.000467636
0.00052117
0.000532923
0.000508693
0.000530517
0.000467369
0.000520879
0.000532897
0.000508667
0.00053049
0.000467345
0.000520852
0.000532821
0.000508592
0.000530413
0.000467274
0.000520775
0.000532821
0.000508592
0.000530413
0.000467274
0.000520775
0.000532897
0.000508667
0.00053049
0.000467345
0.000520852
0.000532923
0.000508693
0.000530517
0.000467369
0.000520879
0.000533208
0.000508975
0.000530808
0.000467636
0.00052117
0.000533276
0.000509042
0.000530878
0.000467699
0.000521241
0.000533987
0.000509748
0.000531602
0.000468364
0.000521964
0.000534131
0.00050989
0.000531748
0.000468498
0.000522111
0.000535877
0.000511635
0.000533518
0.000470149
0.000523883
0.000536119
0.000511873
0.000533762
0.000470372
0.000524129
0.000541054
0.000516895
0.000538739
0.000475287
0.000529254
0.000540627
0.00051671
0.000538696
0.000475297
0.000527585
0.000535778
0.000511779
0.00053381
0.000470474
0.000522548
0.000535539
0.000511543
0.000533568
0.000470253
0.000522305
0.000533796
0.000509803
0.000531802
0.000468606
0.000520539
0.000533653
0.000509662
0.000531657
0.000468473
0.000520392
0.000532942
0.000508956
0.000530932
0.000467808
0.00051967
0.000532874
0.000508889
0.000530863
0.000467744
0.000519599
0.000532588
0.000508606
0.000530571
0.000467477
0.000519308
0.000532563
0.000508581
0.000530545
0.000467453
0.000519281
0.000532486
0.000508505
0.000530467
0.000467382
0.000519204
0.000532486
0.000508505
0.000530467
0.000467382
0.000519204
0.000532563
0.000508581
0.000530545
0.000467453
0.000519281
0.000532588
0.000508606
0.000530571
0.000467477
0.000519308
0.000532874
0.000508889
0.000530863
0.000467744
0.000519599
0.000532942
0.000508956
0.000530932
0.000467808
0.00051967
0.000533653
0.000509662
0.000531657
0.000468473
0.000520392
0.000533796
0.000509803
0.000531802
0.000468606
0.000520539
0.000535539
0.000511543
0.000533568
0.000470253
0.000522305
0.000535778
0.000511779
0.00053381
0.000470474
0.000522548
0.000540627
0.00051671
0.000538696
0.000475297
0.000527585
0.000540217
0.000516535
0.00053866
0.000475241
0.000525922
0.000535452
0.000511693
0.000533863
0.000470508
0.00052097
0.000535216
0.000511459
0.000533624
0.00047029
0.00052073
0.000533477
0.000509723
0.000531862
0.000468647
0.000518971
0.000533335
0.000509583
0.000531717
0.000468515
0.000518825
0.000532623
0.000508877
0.000530993
0.000467849
0.000518103
0.000532556
0.000508811
0.000530924
0.000467786
0.000518033
0.00053227
0.000508527
0.000530632
0.000467519
0.000517742
0.000532244
0.000508502
0.000530606
0.000467495
0.000517715
0.000532168
0.000508427
0.000530528
0.000467424
0.000517637
0.000532168
0.000508427
0.000530528
0.000467424
0.000517637
0.000532244
0.000508502
0.000530606
0.000467495
0.000517715
0.00053227
0.000508527
0.000530632
0.000467519
0.000517742
0.000532556
0.000508811
0.000530924
0.000467786
0.000518033
0.000532623
0.000508877
0.000530993
0.000467849
0.000518103
0.000533335
0.000509583
0.000531717
0.000468515
0.000518825
0.000533477
0.000509723
0.000531862
0.000468647
0.000518971
0.000535216
0.000511459
0.000533624
0.00047029
0.00052073
0.000535452
0.000511693
0.000533863
0.000470508
0.00052097
0.000540217
0.000516535
0.00053866
0.000475241
0.000525922
0.000539824
0.00051637
0.000538634
0.000475121
0.000524279
0.000535142
0.000511615
0.000533923
0.000470477
0.00051941
0.000534908
0.000511384
0.000533687
0.000470261
0.000519173
0.000533174
0.000509652
0.00053193
0.000468623
0.00051742
0.000533033
0.000509513
0.000531786
0.000468492
0.000517276
0.000532321
0.000508807
0.000531062
0.000467826
0.000516554
0.000532254
0.000508741
0.000530993
0.000467763
0.000516484
0.000531967
0.000508457
0.000530701
0.000467496
0.000516193
0.000531942
0.000508432
0.000530675
0.000467472
0.000516166
0.000531865
0.000508356
0.000530597
0.0004674
0.000516088
0.000531865
0.000508356
0.000530597
0.0004674
0.000516088
0.000531942
0.000508432
0.000530675
0.000467472
0.000516166
0.000531967
0.000508457
0.000530701
0.000467496
0.000516193
0.000532254
0.000508741
0.000530993
0.000467763
0.000516484
0.000532321
0.000508807
0.000531062
0.000467826
0.000516554
0.000533033
0.000509513
0.000531786
0.000468492
0.000517276
0.000533174
0.000509652
0.00053193
0.000468623
0.00051742
0.000534908
0.000511384
0.000533687
0.000470261
0.000519173
0.000535142
0.000511615
0.000533923
0.000470477
0.00051941
0.000539824
0.00051637
0.000538634
0.000475121
0.000524279
0.000539449
0.000516215
0.000538619
0.000474937
0.000522585
0.000534848
0.000511545
0.000533993
0.00047038
0.000517798
0.000534616
0.000511317
0.000533759
0.000470166
0.000517564
0.000532886
0.00050959
0.000532008
0.000468534
0.000515819
0.000532746
0.000509452
0.000531865
0.000468403
0.000515675
0.000532034
0.000508746
0.00053114
0.000467738
0.000514954
0.000531967
0.00050868
0.000531072
0.000467676
0.000514885
0.00053168
0.000508396
0.000530779
0.000467408
0.000514593
0.000531655
0.000508371
0.000530753
0.000467384
0.000514567
0.000531578
0.000508295
0.000530675
0.000467313
0.000514489
0.000531578
0.000508295
0.000530675
0.000467313
0.000514489
0.000531655
0.000508371
0.000530753
0.000467384
0.000514567
0.00053168
0.000508396
0.000530779
0.000467408
0.000514593
0.000531967
0.00050868
0.000531072
0.000467676
0.000514885
0.000532034
0.000508746
0.00053114
0.000467738
0.000514954
0.000532746
0.000509452
0.000531865
0.000468403
0.000515675
0.000532886
0.00050959
0.000532008
0.000468534
0.000515819
0.000534616
0.000511317
0.000533759
0.000470166
0.000517564
0.000534848
0.000511545
0.000533993
0.00047038
0.000517798
0.000539449
0.000516215
0.000538619
0.000474937
0.000522585
-1.70162e-05
1.65093e-05
3.24582e-06
7.78631e-07
2.72448e-07
1.84965e-07
1.66439e-07
1.62754e-07
1.61879e-07
1.6168e-07
1.6162e-07
1.61595e-07
1.61496e-07
1.61386e-07
1.60519e-07
1.59852e-07
1.53415e-07
1.50645e-07
1.11916e-07
1.07812e-07
-1.71179e-05
1.64834e-05
3.27291e-06
7.86934e-07
2.74481e-07
1.85452e-07
1.66539e-07
1.62764e-07
1.61866e-07
1.61661e-07
1.61599e-07
1.61573e-07
1.61472e-07
1.6136e-07
1.60479e-07
1.59803e-07
1.53296e-07
1.50518e-07
1.11617e-07
1.076e-07
-1.71149e-05
1.64763e-05
3.27103e-06
7.86742e-07
2.74462e-07
1.85454e-07
1.66541e-07
1.62765e-07
1.61866e-07
1.6166e-07
1.61599e-07
1.61572e-07
1.61471e-07
1.61359e-07
1.60478e-07
1.59802e-07
1.53294e-07
1.50517e-07
1.11613e-07
1.07598e-07
-1.7098e-05
1.64325e-05
3.25882e-06
7.85284e-07
2.74264e-07
1.85446e-07
1.66542e-07
1.62766e-07
1.61865e-07
1.61659e-07
1.61598e-07
1.61571e-07
1.6147e-07
1.61358e-07
1.60475e-07
1.59799e-07
1.53287e-07
1.5051e-07
1.11602e-07
1.07592e-07
-1.70957e-05
1.64279e-05
3.25732e-06
7.85055e-07
2.74221e-07
1.85439e-07
1.66541e-07
1.62766e-07
1.61865e-07
1.61659e-07
1.61598e-07
1.61571e-07
1.6147e-07
1.61358e-07
1.60475e-07
1.59799e-07
1.53286e-07
1.50509e-07
1.11601e-07
1.07592e-07
-1.70871e-05
1.64097e-05
3.2516e-06
7.84225e-07
2.74065e-07
1.85416e-07
1.66537e-07
1.62765e-07
1.61865e-07
1.61659e-07
1.61597e-07
1.61571e-07
1.6147e-07
1.61358e-07
1.60475e-07
1.59799e-07
1.53286e-07
1.50509e-07
1.11601e-07
1.07591e-07
-1.70861e-05
1.64076e-05
3.25093e-06
7.84119e-07
2.74043e-07
1.85413e-07
1.66536e-07
1.62765e-07
1.61865e-07
1.61659e-07
1.61597e-07
1.61571e-07
1.6147e-07
1.61358e-07
1.60475e-07
1.59799e-07
1.53286e-07
1.50509e-07
1.11601e-07
1.07591e-07
-1.70829e-05
1.64006e-05
3.24879e-06
7.83809e-07
2.73984e-07
1.85404e-07
1.66534e-07
1.62764e-07
1.61865e-07
1.61659e-07
1.61597e-07
1.61571e-07
1.6147e-07
1.61357e-07
1.60475e-07
1.59799e-07
1.53286e-07
1.50509e-07
1.11601e-07
1.07591e-07
-1.70826e-05
1.63999e-05
3.24855e-06
7.83771e-07
2.73976e-07
1.85402e-07
1.66534e-07
1.62764e-07
1.61865e-07
1.61659e-07
1.61597e-07
1.61571e-07
1.6147e-07
1.61357e-07
1.60475e-07
1.59799e-07
1.53286e-07
1.50509e-07
1.11601e-07
1.07591e-07
-1.70818e-05
1.63981e-05
3.24801e-06
7.83694e-07
2.73962e-07
1.854e-07
1.66534e-07
1.62764e-07
1.61865e-07
1.61659e-07
1.61597e-07
1.61571e-07
1.6147e-07
1.61357e-07
1.60475e-07
1.59799e-07
1.53286e-07
1.50509e-07
1.11601e-07
1.07591e-07
-1.70818e-05
1.63981e-05
3.24801e-06
7.83694e-07
2.73962e-07
1.854e-07
1.66534e-07
1.62764e-07
1.61865e-07
1.61659e-07
1.61597e-07
1.61571e-07
1.6147e-07
1.61357e-07
1.60475e-07
1.59799e-07
1.53286e-07
1.50509e-07
1.11601e-07
1.07591e-07
-1.70826e-05
1.63999e-05
3.24855e-06
7.83771e-07
2.73976e-07
1.85402e-07
1.66534e-07
1.62764e-07
1.61865e-07
1.61659e-07
1.61597e-07
1.61571e-07
1.6147e-07
1.61357e-07
1.60475e-07
1.59799e-07
1.53286e-07
1.50509e-07
1.11601e-07
1.07591e-07
-1.70829e-05
1.64006e-05
3.24879e-06
7.83809e-07
2.73984e-07
1.85404e-07
1.66534e-07
1.62764e-07
1.61865e-07
1.61659e-07
1.61597e-07
1.61571e-07
1.6147e-07
1.61357e-07
1.60475e-07
1.59799e-07
1.53286e-07
1.50509e-07
1.11601e-07
1.07591e-07
-1.70861e-05
1.64076e-05
3.25093e-06
7.84119e-07
2.74043e-07
1.85413e-07
1.66536e-07
1.62765e-07
1.61865e-07
1.61659e-07
1.61597e-07
1.61571e-07
1.6147e-07
1.61358e-07
1.60475e-07
1.59799e-07
1.53286e-07
1.50509e-07
1.11601e-07
1.07591e-07
-1.70871e-05
1.64097e-05
3.2516e-06
7.84225e-07
2.74065e-07
1.85416e-07
1.66537e-07
1.62765e-07
1.61865e-07
1.61659e-07
1.61597e-07
1.61571e-07
1.6147e-07
1.61358e-07
1.60475e-07
1.59799e-07
1.53286e-07
1.50509e-07
1.11601e-07
1.07591e-07
-1.70957e-05
1.64279e-05
3.25732e-06
7.85055e-07
2.74221e-07
1.85439e-07
1.66541e-07
1.62766e-07
1.61865e-07
1.61659e-07
1.61598e-07
1.61571e-07
1.6147e-07
1.61358e-07
1.60475e-07
1.59799e-07
1.53286e-07
1.50509e-07
1.11601e-07
1.07592e-07
-1.7098e-05
1.64325e-05
3.25882e-06
7.85284e-07
2.74264e-07
1.85446e-07
1.66542e-07
1.62766e-07
1.61865e-07
1.61659e-07
1.61598e-07
1.61571e-07
1.6147e-07
1.61358e-07
1.60475e-07
1.59799e-07
1.53287e-07
1.5051e-07
1.11602e-07
1.07592e-07
-1.71149e-05
1.64763e-05
3.27103e-06
7.86742e-07
2.74462e-07
1.85454e-07
1.66541e-07
1.62765e-07
1.61866e-07
1.6166e-07
1.61599e-07
1.61572e-07
1.61471e-07
1.61359e-07
1.60478e-07
1.59802e-07
1.53294e-07
1.50517e-07
1.11613e-07
1.07598e-07
-1.71179e-05
1.64834e-05
3.27291e-06
7.86934e-07
2.74481e-07
1.85452e-07
1.66539e-07
1.62764e-07
1.61866e-07
1.61661e-07
1.61599e-07
1.61573e-07
1.61472e-07
1.6136e-07
1.60479e-07
1.59803e-07
1.53296e-07
1.50518e-07
1.11617e-07
1.076e-07
-1.70162e-05
1.65093e-05
3.24582e-06
7.78631e-07
2.72448e-07
1.84965e-07
1.66439e-07
1.62754e-07
1.61879e-07
1.6168e-07
1.6162e-07
1.61595e-07
1.61496e-07
1.61386e-07
1.60519e-07
1.59852e-07
1.53415e-07
1.50645e-07
1.11916e-07
1.07812e-07
-1.66446e-05
1.66881e-05
3.27549e-06
7.84868e-07
2.73634e-07
1.85224e-07
1.66489e-07
1.6283e-07
1.61971e-07
1.61769e-07
1.61708e-07
1.61682e-07
1.61582e-07
1.6147e-07
1.60564e-07
1.59834e-07
1.53333e-07
1.50538e-07
1.11321e-07
1.07189e-07
-1.67404e-05
1.66624e-05
3.30287e-06
7.93262e-07
2.75691e-07
1.85715e-07
1.66591e-07
1.62839e-07
1.61958e-07
1.6175e-07
1.61687e-07
1.6166e-07
1.61558e-07
1.61444e-07
1.60522e-07
1.59784e-07
1.53213e-07
1.5041e-07
1.11017e-07
1.06972e-07
-1.67371e-05
1.66552e-05
3.30098e-06
7.93068e-07
2.75671e-07
1.85718e-07
1.66593e-07
1.62839e-07
1.61958e-07
1.6175e-07
1.61687e-07
1.6166e-07
1.61558e-07
1.61444e-07
1.60521e-07
1.59783e-07
1.53211e-07
1.50408e-07
1.11014e-07
1.0697e-07
-1.67192e-05
1.66109e-05