/*--------------------------------*- C++ -*----------------------------------*\
  =========                 |
  \\      /  F ield         | OpenFOAM: The Open Source CFD Toolbox
   \\    /   O peration     | Website:  https://openfoam.org
    \\  /    A nd           | Version:  8
     \\/     M anipulation  |
\*---------------------------------------------------------------------------*/
FoamFile
{
    version     2.0;
    format      ascii;
    class       volScalarField;
    location    "1.7";
    object      H2;
}
// * * * * * * * * * * * * * * * * * * * * * * * * * * * * * * * * * * * * * //

dimensions      [0 1 -1 0 0 0 0];

internalField   nonuniform List<scalar> 
180000
(
-6.75726e-30
-3.9806e-25
-2.09769e-20
-9.60371e-16
-3.72303e-11
-7.57459e-30
-4.42936e-25
-2.31354e-20
-1.04728e-15
-3.99699e-11
-7.5984e-30
-4.44238e-25
-2.31977e-20
-1.04978e-15
-4.00486e-11
-7.67934e-30
-4.48714e-25
-2.34142e-20
-1.05855e-15
-4.03271e-11
-7.68246e-30
-4.48889e-25
-2.34227e-20
-1.0589e-15
-4.03379e-11
-7.6896e-30
-4.49298e-25
-2.34432e-20
-1.05976e-15
-4.0366e-11
-7.68997e-30
-4.49321e-25
-2.34445e-20
-1.05981e-15
-4.0368e-11
-7.69086e-30
-4.49378e-25
-2.34476e-20
-1.05996e-15
-4.03735e-11
-7.69087e-30
-4.49381e-25
-2.34478e-20
-1.05998e-15
-4.0374e-11
-7.69098e-30
-4.49389e-25
-2.34483e-20
-1.06e-15
-4.03752e-11
-7.69098e-30
-4.49389e-25
-2.34483e-20
-1.06e-15
-4.03752e-11
-7.69087e-30
-4.49381e-25
-2.34478e-20
-1.05998e-15
-4.0374e-11
-7.69086e-30
-4.49378e-25
-2.34476e-20
-1.05996e-15
-4.03735e-11
-7.68997e-30
-4.49321e-25
-2.34445e-20
-1.05981e-15
-4.0368e-11
-7.6896e-30
-4.49298e-25
-2.34432e-20
-1.05976e-15
-4.0366e-11
-7.68246e-30
-4.48889e-25
-2.34227e-20
-1.0589e-15
-4.03379e-11
-7.67934e-30
-4.48714e-25
-2.34142e-20
-1.05855e-15
-4.03271e-11
-7.5984e-30
-4.44238e-25
-2.31977e-20
-1.04978e-15
-4.00486e-11
-7.57459e-30
-4.42936e-25
-2.31354e-20
-1.04728e-15
-3.99699e-11
-6.75726e-30
-3.9806e-25
-2.09769e-20
-9.60371e-16
-3.72303e-11
-6.75678e-30
-3.98038e-25
-2.09817e-20
-9.71203e-16
-5.52471e-11
-7.57407e-30
-4.4291e-25
-2.31397e-20
-1.05771e-15
-5.7455e-11
-7.59787e-30
-4.44212e-25
-2.3202e-20
-1.0602e-15
-5.75235e-11
-7.67881e-30
-4.48688e-25
-2.34185e-20
-1.06892e-15
-5.77486e-11
-7.68193e-30
-4.48862e-25
-2.34269e-20
-1.06926e-15
-5.77573e-11
-7.68907e-30
-4.49272e-25
-2.34474e-20
-1.07011e-15
-5.77728e-11
-7.68943e-30
-4.49295e-25
-2.34487e-20
-1.07017e-15
-5.77744e-11
-7.69032e-30
-4.49352e-25
-2.34518e-20
-1.07031e-15
-5.77758e-11
-7.69034e-30
-4.49354e-25
-2.3452e-20
-1.07032e-15
-5.77763e-11
-7.69044e-30
-4.49362e-25
-2.34525e-20
-1.07035e-15
-5.77765e-11
-7.69044e-30
-4.49362e-25
-2.34525e-20
-1.07035e-15
-5.77765e-11
-7.69034e-30
-4.49354e-25
-2.3452e-20
-1.07032e-15
-5.77763e-11
-7.69032e-30
-4.49352e-25
-2.34518e-20
-1.07031e-15
-5.77758e-11
-7.68943e-30
-4.49295e-25
-2.34487e-20
-1.07017e-15
-5.77744e-11
-7.68907e-30
-4.49272e-25
-2.34474e-20
-1.07011e-15
-5.77728e-11
-7.68193e-30
-4.48862e-25
-2.34269e-20
-1.06926e-15
-5.77573e-11
-7.67881e-30
-4.48688e-25
-2.34185e-20
-1.06892e-15
-5.77486e-11
-7.59787e-30
-4.44212e-25
-2.3202e-20
-1.0602e-15
-5.75235e-11
-7.57407e-30
-4.4291e-25
-2.31397e-20
-1.05771e-15
-5.7455e-11
-6.75678e-30
-3.98038e-25
-2.09817e-20
-9.71203e-16
-5.52471e-11
-6.7564e-30
-3.98034e-25
-2.10213e-20
-1.02275e-15
-1.20073e-10
-7.57364e-30
-4.42895e-25
-2.31686e-20
-1.09446e-15
-9.83574e-11
-7.59745e-30
-4.44197e-25
-2.32307e-20
-1.09668e-15
-9.79912e-11
-7.67838e-30
-4.48671e-25
-2.34463e-20
-1.1043e-15
-9.65221e-11
-7.6815e-30
-4.48846e-25
-2.34548e-20
-1.10462e-15
-9.65102e-11
-7.68864e-30
-4.49255e-25
-2.34752e-20
-1.10539e-15
-9.64592e-11
-7.689e-30
-4.49278e-25
-2.34764e-20
-1.10545e-15
-9.647e-11
-7.68989e-30
-4.49335e-25
-2.34796e-20
-1.10558e-15
-9.64779e-11
-7.68991e-30
-4.49337e-25
-2.34798e-20
-1.1056e-15
-9.64833e-11
-7.69001e-30
-4.49345e-25
-2.34803e-20
-1.10562e-15
-9.64862e-11
-7.69001e-30
-4.49345e-25
-2.34803e-20
-1.10562e-15
-9.64862e-11
-7.68991e-30
-4.49337e-25
-2.34798e-20
-1.1056e-15
-9.64833e-11
-7.68989e-30
-4.49335e-25
-2.34796e-20
-1.10558e-15
-9.64779e-11
-7.689e-30
-4.49278e-25
-2.34764e-20
-1.10545e-15
-9.647e-11
-7.68864e-30
-4.49255e-25
-2.34752e-20
-1.10539e-15
-9.64592e-11
-7.6815e-30
-4.48846e-25
-2.34548e-20
-1.10462e-15
-9.65102e-11
-7.67838e-30
-4.48671e-25
-2.34463e-20
-1.1043e-15
-9.65221e-11
-7.59745e-30
-4.44197e-25
-2.32307e-20
-1.09668e-15
-9.79912e-11
-7.57364e-30
-4.42895e-25
-2.31686e-20
-1.09446e-15
-9.83574e-11
-6.7564e-30
-3.98034e-25
-2.10213e-20
-1.02275e-15
-1.20073e-10
-6.75594e-30
-3.97871e-25
-2.07887e-20
-5.9585e-16
7.01612e-10
-7.57307e-30
-4.42659e-25
-2.28397e-20
-5.31969e-16
9.34209e-10
-7.59688e-30
-4.4396e-25
-2.29003e-20
-5.31991e-16
9.38094e-10
-7.67781e-30
-4.4843e-25
-2.31108e-20
-5.31761e-16
9.52857e-10
-7.68093e-30
-4.48605e-25
-2.31194e-20
-5.32131e-16
9.52894e-10
-7.68807e-30
-4.49014e-25
-2.31403e-20
-5.33401e-16
9.52635e-10
-7.68843e-30
-4.49037e-25
-2.31417e-20
-5.33585e-16
9.52476e-10
-7.68932e-30
-4.49095e-25
-2.31451e-20
-5.34087e-16
9.52071e-10
-7.68934e-30
-4.49097e-25
-2.31454e-20
-5.34153e-16
9.52001e-10
-7.68944e-30
-4.49105e-25
-2.3146e-20
-5.34275e-16
9.51889e-10
-7.68944e-30
-4.49105e-25
-2.3146e-20
-5.34275e-16
9.51889e-10
-7.68934e-30
-4.49097e-25
-2.31454e-20
-5.34153e-16
9.52001e-10
-7.68932e-30
-4.49095e-25
-2.31451e-20
-5.34087e-16
9.52071e-10
-7.68843e-30
-4.49037e-25
-2.31417e-20
-5.33585e-16
9.52476e-10
-7.68807e-30
-4.49014e-25
-2.31403e-20
-5.33401e-16
9.52635e-10
-7.68093e-30
-4.48605e-25
-2.31194e-20
-5.32131e-16
9.52894e-10
-7.67781e-30
-4.4843e-25
-2.31108e-20
-5.31761e-16
9.52857e-10
-7.59688e-30
-4.4396e-25
-2.29003e-20
-5.31991e-16
9.38094e-10
-7.57307e-30
-4.42659e-25
-2.28397e-20
-5.31969e-16
9.34209e-10
-6.75594e-30
-3.97871e-25
-2.07887e-20
-5.9585e-16
7.01612e-10
-6.75397e-30
-3.95577e-25
-1.74348e-20
4.18348e-15
8.04375e-09
-7.57079e-30
-4.40024e-25
-1.90337e-20
4.84009e-15
9.10689e-09
-7.59461e-30
-4.41321e-25
-1.90887e-20
4.84854e-15
9.12358e-09
-7.67553e-30
-4.45784e-25
-1.92852e-20
4.87595e-15
9.18625e-09
-7.67865e-30
-4.4596e-25
-1.92951e-20
4.87467e-15
9.18595e-09
-7.68579e-30
-4.46377e-25
-1.93235e-20
4.86763e-15
9.18223e-09
-7.68616e-30
-4.46401e-25
-1.93258e-20
4.86658e-15
9.1813e-09
-7.68705e-30
-4.46461e-25
-1.93327e-20
4.8631e-15
9.17844e-09
-7.68707e-30
-4.46464e-25
-1.93333e-20
4.86269e-15
9.17805e-09
-7.68718e-30
-4.46472e-25
-1.93347e-20
4.86179e-15
9.17728e-09
-7.68718e-30
-4.46472e-25
-1.93347e-20
4.86179e-15
9.17728e-09
-7.68707e-30
-4.46464e-25
-1.93333e-20
4.86269e-15
9.17805e-09
-7.68705e-30
-4.46461e-25
-1.93327e-20
4.8631e-15
9.17844e-09
-7.68616e-30
-4.46401e-25
-1.93258e-20
4.86658e-15
9.1813e-09
-7.68579e-30
-4.46377e-25
-1.93235e-20
4.86763e-15
9.18223e-09
-7.67865e-30
-4.4596e-25
-1.92951e-20
4.87467e-15
9.18595e-09
-7.67553e-30
-4.45784e-25
-1.92852e-20
4.87595e-15
9.18625e-09
-7.59461e-30
-4.41321e-25
-1.90887e-20
4.84854e-15
9.12358e-09
-7.57079e-30
-4.40024e-25
-1.90337e-20
4.84009e-15
9.10689e-09
-6.75397e-30
-3.95577e-25
-1.74348e-20
4.18348e-15
8.04375e-09
-6.74305e-30
-3.82104e-25
1.34521e-22
2.57991e-14
3.62742e-08
-7.55893e-30
-4.25471e-25
-1.34365e-22
2.80194e-14
3.92025e-08
-7.58276e-30
-4.26762e-25
-1.76731e-22
2.80471e-14
3.92455e-08
-7.6637e-30
-4.3124e-25
-3.65026e-22
2.81247e-14
3.94037e-08
-7.66683e-30
-4.31423e-25
-3.82097e-22
2.81189e-14
3.94014e-08
-7.67402e-30
-4.31881e-25
-4.48905e-22
2.80858e-14
3.93838e-08
-7.67439e-30
-4.31909e-25
-4.55541e-22
2.80815e-14
3.93806e-08
-7.6753e-30
-4.31986e-25
-4.78733e-22
2.80659e-14
3.93697e-08
-7.67531e-30
-4.31991e-25
-4.80961e-22
2.80643e-14
3.93684e-08
-7.67542e-30
-4.32004e-25
-4.86596e-22
2.80602e-14
3.93655e-08
-7.67542e-30
-4.32004e-25
-4.86596e-22
2.80602e-14
3.93655e-08
-7.67531e-30
-4.31991e-25
-4.80961e-22
2.80643e-14
3.93684e-08
-7.6753e-30
-4.31986e-25
-4.78733e-22
2.80659e-14
3.93697e-08
-7.67439e-30
-4.31909e-25
-4.55541e-22
2.80815e-14
3.93806e-08
-7.67402e-30
-4.31881e-25
-4.48904e-22
2.80858e-14
3.93838e-08
-7.66683e-30
-4.31423e-25
-3.82096e-22
2.81189e-14
3.94014e-08
-7.6637e-30
-4.3124e-25
-3.65026e-22
2.81247e-14
3.94037e-08
-7.58276e-30
-4.26762e-25
-1.76729e-22
2.80471e-14
3.92455e-08
-7.55893e-30
-4.25471e-25
-1.34363e-22
2.80194e-14
3.92025e-08
-6.74305e-30
-3.82104e-25
1.34519e-22
2.57991e-14
3.62742e-08
-6.69775e-30
-3.3074e-25
5.94979e-20
8.90932e-14
1.05876e-07
-7.51142e-30
-3.71659e-25
6.19615e-20
9.41121e-14
1.11456e-07
-7.53527e-30
-3.72947e-25
6.1933e-20
9.41667e-14
1.11531e-07
-7.61644e-30
-3.77583e-25
6.16617e-20
9.42746e-14
1.11793e-07
-7.6196e-30
-3.77797e-25
6.16199e-20
9.42546e-14
1.11785e-07
-7.62697e-30
-3.7841e-25
6.14244e-20
9.41446e-14
1.11731e-07
-7.62736e-30
-3.78454e-25
6.14042e-20
9.41316e-14
1.11723e-07
-7.62833e-30
-3.78593e-25
6.13286e-20
9.40828e-14
1.11694e-07
-7.62836e-30
-3.78603e-25
6.13213e-20
9.40778e-14
1.1169e-07
-7.62849e-30
-3.78632e-25
6.13024e-20
9.40652e-14
1.11683e-07
-7.62849e-30
-3.78632e-25
6.13024e-20
9.40652e-14
1.11683e-07
-7.62836e-30
-3.78603e-25
6.13213e-20
9.40778e-14
1.1169e-07
-7.62833e-30
-3.78593e-25
6.13286e-20
9.40828e-14
1.11694e-07
-7.62736e-30
-3.78454e-25
6.14042e-20
9.41316e-14
1.11723e-07
-7.62697e-30
-3.7841e-25
6.14244e-20
9.41446e-14
1.11731e-07
-7.6196e-30
-3.77797e-25
6.16199e-20
9.42546e-14
1.11785e-07
-7.61644e-30
-3.77583e-25
6.16617e-20
9.42746e-14
1.11793e-07
-7.53527e-30
-3.72947e-25
6.1933e-20
9.41667e-14
1.11531e-07
-7.51142e-30
-3.71659e-25
6.19615e-20
9.41121e-14
1.11456e-07
-6.69775e-30
-3.3074e-25
5.94979e-20
8.90932e-14
1.05876e-07
-6.55254e-30
-1.82006e-25
2.1166e-19
2.29208e-13
2.33717e-07
-7.36232e-30
-2.18821e-25
2.18227e-19
2.37795e-13
2.41665e-07
-7.38625e-30
-2.20146e-25
2.18188e-19
2.37866e-13
2.41759e-07
-7.46834e-30
-2.25425e-25
2.17518e-19
2.37863e-13
2.42032e-07
-7.47161e-30
-2.25726e-25
2.17412e-19
2.3781e-13
2.42009e-07
-7.47954e-30
-2.26786e-25
2.16887e-19
2.37526e-13
2.41881e-07
-7.47999e-30
-2.26873e-25
2.16833e-19
2.37495e-13
2.41865e-07
-7.48118e-30
-2.27186e-25
2.16627e-19
2.37374e-13
2.41804e-07
-7.48123e-30
-2.27212e-25
2.16608e-19
2.37363e-13
2.41797e-07
-7.48141e-30
-2.27285e-25
2.16555e-19
2.37332e-13
2.41781e-07
-7.48141e-30
-2.27285e-25
2.16555e-19
2.37332e-13
2.41781e-07
-7.48123e-30
-2.27212e-25
2.16608e-19
2.37363e-13
2.41797e-07
-7.48118e-30
-2.27186e-25
2.16627e-19
2.37374e-13
2.41804e-07
-7.47999e-30
-2.26873e-25
2.16833e-19
2.37495e-13
2.41865e-07
-7.47954e-30
-2.26786e-25
2.16887e-19
2.37526e-13
2.41881e-07
-7.47161e-30
-2.25726e-25
2.17412e-19
2.3781e-13
2.42009e-07
-7.46834e-30
-2.25425e-25
2.17518e-19
2.37863e-13
2.42032e-07
-7.38625e-30
-2.20146e-25
2.18188e-19
2.37866e-13
2.41759e-07
-7.36232e-30
-2.18821e-25
2.18227e-19
2.37795e-13
2.41665e-07
-6.55254e-30
-1.82006e-25
2.1166e-19
2.29208e-13
2.33717e-07
-6.16815e-30
1.72974e-25
5.33287e-19
4.8445e-13
4.2467e-07
-6.97336e-30
1.4098e-25
5.44193e-19
4.96131e-13
4.33474e-07
-6.99759e-30
1.39491e-25
5.44065e-19
4.96179e-13
4.3355e-07
-7.08244e-30
1.32367e-25
5.42267e-19
4.9573e-13
4.3363e-07
-7.08601e-30
1.31856e-25
5.42022e-19
4.95613e-13
4.33582e-07
-7.09544e-30
1.29731e-25
5.40794e-19
4.95001e-13
4.33328e-07
-7.09603e-30
1.29542e-25
5.40673e-19
4.94937e-13
4.33299e-07
-7.09779e-30
1.28821e-25
5.40194e-19
4.94687e-13
4.33188e-07
-7.09789e-30
1.28759e-25
5.4015e-19
4.94663e-13
4.33177e-07
-7.09821e-30
1.28583e-25
5.40029e-19
4.94599e-13
4.33148e-07
-7.09821e-30
1.28583e-25
5.40029e-19
4.94599e-13
4.33148e-07
-7.09789e-30
1.28759e-25
5.4015e-19
4.94663e-13
4.33177e-07
-7.09779e-30
1.28821e-25
5.40194e-19
4.94687e-13
4.33188e-07
-7.09603e-30
1.29542e-25
5.40673e-19
4.94937e-13
4.33299e-07
-7.09544e-30
1.29731e-25
5.40794e-19
4.95001e-13
4.33328e-07
-7.08601e-30
1.31856e-25
5.42022e-19
4.95613e-13
4.33582e-07
-7.08244e-30
1.32367e-25
5.42267e-19
4.9573e-13
4.3363e-07
-6.99759e-30
1.39491e-25
5.44065e-19
4.96179e-13
4.3355e-07
-6.97336e-30
1.4098e-25
5.44193e-19
4.96131e-13
4.33474e-07
-6.16815e-30
1.72974e-25
5.33287e-19
4.8445e-13
4.2467e-07
-5.28771e-30
9.0727e-25
1.12379e-18
8.8863e-13
6.70986e-07
-6.09216e-30
8.77645e-25
1.13683e-18
9.0135e-13
6.78534e-07
-6.11716e-30
8.75706e-25
1.13644e-18
9.01297e-13
6.78547e-07
-6.20894e-30
8.64278e-25
1.13217e-18
8.99844e-13
6.78167e-07
-6.21319e-30
8.63331e-25
1.13167e-18
8.99619e-13
6.7808e-07
-6.22605e-30
8.58997e-25
1.12913e-18
8.98464e-13
6.77635e-07
-6.22695e-30
8.58603e-25
1.12889e-18
8.98349e-13
6.77588e-07
-6.23001e-30
8.57045e-25
1.12791e-18
8.9789e-13
6.77406e-07
-6.23022e-30
8.56909e-25
1.12782e-18
8.97848e-13
6.77389e-07
-6.23086e-30
8.56523e-25
1.12758e-18
8.97732e-13
6.77343e-07
-6.23086e-30
8.56523e-25
1.12758e-18
8.97732e-13
6.77343e-07
-6.23022e-30
8.56909e-25
1.12782e-18
8.97848e-13
6.77389e-07
-6.23001e-30
8.57045e-25
1.12791e-18
8.9789e-13
6.77406e-07
-6.22695e-30
8.58603e-25
1.12889e-18
8.98349e-13
6.77588e-07
-6.22605e-30
8.58997e-25
1.12913e-18
8.98464e-13
6.77635e-07
-6.21319e-30
8.63331e-25
1.13167e-18
8.99619e-13
6.7808e-07
-6.20894e-30
8.64278e-25
1.13217e-18
8.99844e-13
6.78167e-07
-6.11716e-30
8.75706e-25
1.13644e-18
9.01297e-13
6.78547e-07
-6.09216e-30
8.77645e-25
1.13683e-18
9.0135e-13
6.78534e-07
-5.28771e-30
9.0727e-25
1.12379e-18
8.8863e-13
6.70986e-07
-3.53764e-30
2.19235e-24
1.98099e-18
1.29023e-12
6.67821e-07
-4.35303e-30
2.1595e-24
1.99401e-18
1.30405e-12
6.75439e-07
-4.37973e-30
2.15667e-24
1.99321e-18
1.3039e-12
6.75456e-07
-4.48599e-30
2.13725e-24
1.98515e-18
1.30147e-12
6.75099e-07
-4.4916e-30
2.13554e-24
1.98427e-18
1.30114e-12
6.75014e-07
-4.51126e-30
2.12734e-24
1.97983e-18
1.29945e-12
6.74578e-07
-4.51278e-30
2.12659e-24
1.97941e-18
1.29928e-12
6.74533e-07
-4.51838e-30
2.12358e-24
1.97772e-18
1.29862e-12
6.74355e-07
-4.5188e-30
2.12332e-24
1.97757e-18
1.29856e-12
6.74338e-07
-4.52009e-30
2.12257e-24
1.97714e-18
1.29839e-12
6.74293e-07
-4.52009e-30
2.12257e-24
1.97714e-18
1.29839e-12
6.74293e-07
-4.5188e-30
2.12332e-24
1.97757e-18
1.29856e-12
6.74338e-07
-4.51837e-30
2.12358e-24
1.97772e-18
1.29862e-12
6.74355e-07
-4.51278e-30
2.12659e-24
1.97941e-18
1.29928e-12
6.74533e-07
-4.51126e-30
2.12734e-24
1.97983e-18
1.29945e-12
6.74578e-07
-4.4916e-30
2.13554e-24
1.98427e-18
1.30114e-12
6.75014e-07
-4.48599e-30
2.13725e-24
1.98515e-18
1.30147e-12
6.75099e-07
-4.37973e-30
2.15667e-24
1.99321e-18
1.3039e-12
6.75456e-07
-4.35303e-30
2.1595e-24
1.99401e-18
1.30405e-12
6.75439e-07
-3.53764e-30
2.19235e-24
1.98099e-18
1.29023e-12
6.67821e-07
-4.28504e-31
4.19801e-24
3.10267e-18
1.68924e-12
6.64719e-07
-1.27786e-30
4.15322e-24
3.11354e-18
1.7042e-12
6.72405e-07
-1.30774e-30
4.14891e-24
3.11218e-18
1.70396e-12
6.72426e-07
-1.44057e-30
4.11663e-24
3.09904e-18
1.70058e-12
6.72092e-07
-1.44855e-30
4.11374e-24
3.09768e-18
1.70015e-12
6.72009e-07
-1.48028e-30
4.09951e-24
3.09076e-18
1.69793e-12
6.71583e-07
-1.48288e-30
4.09822e-24
3.09012e-18
1.69772e-12
6.71539e-07
-1.49296e-30
4.09295e-24
3.08749e-18
1.69686e-12
6.71364e-07
-1.49377e-30
4.09249e-24
3.08725e-18
1.69678e-12
6.71348e-07
-1.49618e-30
4.09118e-24
3.08659e-18
1.69656e-12
6.71303e-07
-1.49618e-30
4.09118e-24
3.08659e-18
1.69656e-12
6.71303e-07
-1.49377e-30
4.09249e-24
3.08725e-18
1.69678e-12
6.71348e-07
-1.49296e-30
4.09295e-24
3.08749e-18
1.69686e-12
6.71364e-07
-1.48288e-30
4.09822e-24
3.09012e-18
1.69772e-12
6.71539e-07
-1.48028e-30
4.09951e-24
3.09076e-18
1.69793e-12
6.71583e-07
-1.44855e-30
4.11374e-24
3.09768e-18
1.70015e-12
6.72009e-07
-1.44056e-30
4.11663e-24
3.09904e-18
1.70058e-12
6.72092e-07
-1.30774e-30
4.14891e-24
3.11218e-18
1.70396e-12
6.72426e-07
-1.27786e-30
4.15322e-24
3.11354e-18
1.7042e-12
6.72405e-07
-4.28505e-31
4.19801e-24
3.10267e-18
1.68924e-12
6.64719e-07
4.64416e-30
7.09234e-24
4.48648e-18
2.08558e-12
6.61672e-07
3.72298e-30
7.02378e-24
4.49313e-18
2.10174e-12
6.69424e-07
3.68774e-30
7.01727e-24
4.49107e-18
2.10141e-12
6.69449e-07
3.51073e-30
6.9661e-24
4.47161e-18
2.0971e-12
6.69136e-07
3.49889e-30
6.9615e-24
4.46965e-18
2.09657e-12
6.69056e-07
3.44751e-30
6.93859e-24
4.45969e-18
2.09384e-12
6.68639e-07
3.44317e-30
6.93652e-24
4.45877e-18
2.09358e-12
6.68595e-07
3.4258e-30
6.92802e-24
4.45499e-18
2.09252e-12
6.68424e-07
3.42437e-30
6.92729e-24
4.45466e-18
2.09243e-12
6.68408e-07
3.42015e-30
6.92516e-24
4.45371e-18
2.09216e-12
6.68365e-07
3.42015e-30
6.92516e-24
4.45371e-18
2.09216e-12
6.68365e-07
3.42437e-30
6.92729e-24
4.45466e-18
2.09243e-12
6.68408e-07
3.42581e-30
6.92802e-24
4.45499e-18
2.09252e-12
6.68424e-07
3.44317e-30
6.93652e-24
4.45877e-18
2.09358e-12
6.68595e-07
3.44751e-30
6.93859e-24
4.45969e-18
2.09384e-12
6.68639e-07
3.49889e-30
6.9615e-24
4.46965e-18
2.09657e-12
6.69056e-07
3.51073e-30
6.9661e-24
4.47161e-18
2.0971e-12
6.69136e-07
3.68774e-30
7.01727e-24
4.49107e-18
2.10141e-12
6.69449e-07
3.72298e-30
7.02378e-24
4.49313e-18
2.10174e-12
6.69424e-07
4.64416e-30
7.09234e-24
4.48648e-18
2.08558e-12
6.61672e-07
1.23989e-29
1.10416e-23
6.13e-18
2.47917e-12
6.58673e-07
1.13497e-29
1.09344e-23
6.1304e-18
2.49658e-12
6.6649e-07
1.13061e-29
1.09248e-23
6.1275e-18
2.49617e-12
6.66519e-07
1.10607e-29
1.08476e-23
6.10051e-18
2.49096e-12
6.66228e-07
1.1043e-29
1.08407e-23
6.09785e-18
2.49034e-12
6.66149e-07
1.09617e-29
1.0806e-23
6.08428e-18
2.48711e-12
6.65741e-07
1.09547e-29
1.08029e-23
6.08304e-18
2.4868e-12
6.65698e-07
1.09263e-29
1.079e-23
6.07791e-18
2.48555e-12
6.65531e-07
1.09239e-29
1.07889e-23
6.07747e-18
2.48544e-12
6.65515e-07
1.0917e-29
1.07856e-23
6.07618e-18
2.48512e-12
6.65472e-07
1.0917e-29
1.07856e-23
6.07618e-18
2.48512e-12
6.65472e-07
1.09239e-29
1.07889e-23
6.07747e-18
2.48544e-12
6.65515e-07
1.09263e-29
1.079e-23
6.07791e-18
2.48555e-12
6.65531e-07
1.09547e-29
1.08029e-23
6.08304e-18
2.4868e-12
6.65698e-07
1.09617e-29
1.0806e-23
6.08428e-18
2.48711e-12
6.65741e-07
1.1043e-29
1.08407e-23
6.09785e-18
2.49034e-12
6.66149e-07
1.10607e-29
1.08476e-23
6.10051e-18
2.49096e-12
6.66228e-07
1.13061e-29
1.09248e-23
6.1275e-18
2.49617e-12
6.66519e-07
1.13497e-29
1.09344e-23
6.1304e-18
2.49658e-12
6.6649e-07
1.23989e-29
1.10416e-23
6.13e-18
2.47917e-12
6.58673e-07
2.36675e-29
1.62103e-23
8.0307e-18
2.86994e-12
6.5572e-07
2.24123e-29
1.60463e-23
8.02286e-18
2.88865e-12
6.636e-07
2.23564e-29
1.60327e-23
8.019e-18
2.88817e-12
6.63632e-07
2.20109e-29
1.59212e-23
7.9833e-18
2.88209e-12
6.63363e-07
2.19847e-29
1.59113e-23
7.97984e-18
2.88137e-12
6.63286e-07
2.186e-29
1.58612e-23
7.96213e-18
2.87765e-12
6.62886e-07
2.18492e-29
1.58568e-23
7.96052e-18
2.8773e-12
6.62845e-07
2.18048e-29
1.58381e-23
7.95384e-18
2.87585e-12
6.62681e-07
2.18011e-29
1.58366e-23
7.95327e-18
2.87573e-12
6.62665e-07
2.17901e-29
1.58319e-23
7.95159e-18
2.87536e-12
6.62623e-07
2.17901e-29
1.58319e-23
7.95159e-18
2.87536e-12
6.62623e-07
2.18011e-29
1.58366e-23
7.95327e-18
2.87573e-12
6.62665e-07
2.18048e-29
1.58381e-23
7.95384e-18
2.87585e-12
6.62681e-07
2.18492e-29
1.58568e-23
7.96052e-18
2.8773e-12
6.62845e-07
2.186e-29
1.58612e-23
7.96213e-18
2.87765e-12
6.62886e-07
2.19847e-29
1.59113e-23
7.97984e-18
2.88137e-12
6.63286e-07
2.20109e-29
1.59212e-23
7.9833e-18
2.88209e-12
6.63363e-07
2.23564e-29
1.60327e-23
8.019e-18
2.88817e-12
6.63632e-07
2.24123e-29
1.60463e-23
8.02286e-18
2.88865e-12
6.636e-07
2.36675e-29
1.62103e-23
8.0307e-18
2.86994e-12
6.5572e-07
3.93941e-29
2.27608e-23
1.0186e-17
3.25781e-12
6.52809e-07
3.78294e-29
2.25191e-23
1.01679e-17
3.27787e-12
6.6075e-07
3.77562e-29
2.25003e-23
1.0163e-17
3.27732e-12
6.60787e-07
3.72703e-29
2.23453e-23
1.01175e-17
3.27039e-12
6.60538e-07
3.72324e-29
2.23317e-23
1.01131e-17
3.26959e-12
6.60463e-07
3.70473e-29
2.22621e-23
1.00907e-17
3.26538e-12
6.60071e-07
3.70313e-29
2.22559e-23
1.00887e-17
3.26499e-12
6.6003e-07
3.69647e-29
2.22301e-23
1.00803e-17
3.26336e-12
6.5987e-07
3.69591e-29
2.22279e-23
1.00796e-17
3.26322e-12
6.59855e-07
3.69427e-29
2.22215e-23
1.00774e-17
3.26281e-12
6.59814e-07
3.69427e-29
2.22215e-23
1.00774e-17
3.26281e-12
6.59814e-07
3.69591e-29
2.22279e-23
1.00796e-17
3.26322e-12
6.59855e-07
3.69647e-29
2.22301e-23
1.00803e-17
3.26336e-12
6.5987e-07
3.70313e-29
2.22559e-23
1.00887e-17
3.26499e-12
6.6003e-07
3.70473e-29
2.22621e-23
1.00907e-17
3.26538e-12
6.60071e-07
3.72324e-29
2.23317e-23
1.01131e-17
3.26959e-12
6.60463e-07
3.72703e-29
2.23453e-23
1.01175e-17
3.27039e-12
6.60538e-07
3.77562e-29
2.25003e-23
1.0163e-17
3.27732e-12
6.60787e-07
3.78294e-29
2.25191e-23
1.01679e-17
3.27787e-12
6.6075e-07
3.93941e-29
2.27608e-23
1.0186e-17
3.25781e-12
6.52809e-07
6.06341e-29
3.08536e-23
1.25931e-17
3.6427e-12
6.49935e-07
5.86274e-29
3.05101e-23
1.2563e-17
3.66416e-12
6.57937e-07
5.85308e-29
3.0485e-23
1.25568e-17
3.66355e-12
6.57977e-07
5.78548e-29
3.02761e-23
1.25004e-17
3.65581e-12
6.57749e-07
5.78012e-29
3.02579e-23
1.2495e-17
3.65491e-12
6.57675e-07
5.75349e-29
3.01644e-23
1.24675e-17
3.65024e-12
6.57292e-07
5.75118e-29
3.01562e-23
1.2465e-17
3.6498e-12
6.57252e-07
5.74154e-29
3.01215e-23
1.24546e-17
3.648e-12
6.57095e-07
5.74074e-29
3.01186e-23
1.24538e-17
3.64784e-12
6.5708e-07
5.73835e-29
3.011e-23
1.24512e-17
3.64739e-12
6.5704e-07
5.73835e-29
3.011e-23
1.24512e-17
3.64739e-12
6.5704e-07
5.74074e-29
3.01186e-23
1.24538e-17
3.64784e-12
6.5708e-07
5.74154e-29
3.01215e-23
1.24546e-17
3.648e-12
6.57095e-07
5.75118e-29
3.01562e-23
1.2465e-17
3.6498e-12
6.57252e-07
5.75349e-29
3.01644e-23
1.24675e-17
3.65024e-12
6.57292e-07
5.78012e-29
3.02579e-23
1.2495e-17
3.65491e-12
6.57675e-07
5.78548e-29
3.02761e-23
1.25004e-17
3.65581e-12
6.57749e-07
5.85308e-29
3.0485e-23
1.25568e-17
3.66355e-12
6.57977e-07
5.86274e-29
3.05101e-23
1.2563e-17
3.66416e-12
6.57937e-07
6.06341e-29
3.08536e-23
1.25931e-17
3.6427e-12
6.49935e-07
8.85534e-29
4.06474e-23
1.52493e-17
4.02452e-12
6.47096e-07
8.59396e-29
4.01747e-23
1.52052e-17
4.04743e-12
6.55157e-07
8.58121e-29
4.0142e-23
1.51978e-17
4.04677e-12
6.55201e-07
8.48861e-29
3.98681e-23
1.51293e-17
4.03824e-12
6.54992e-07
8.4812e-29
3.98443e-23
1.51229e-17
4.03726e-12
6.5492e-07
8.44392e-29
3.97221e-23
1.50897e-17
4.03213e-12
6.54546e-07
8.4407e-29
3.97113e-23
1.50867e-17
4.03165e-12
6.54506e-07
8.42716e-29
3.96661e-23
1.50743e-17
4.02968e-12
6.54352e-07
8.42604e-29
3.96622e-23
1.50732e-17
4.0295e-12
6.54337e-07
8.42267e-29
3.96509e-23
1.50701e-17
4.02901e-12
6.54298e-07
8.42267e-29
3.96509e-23
1.50701e-17
4.02901e-12
6.54298e-07
8.42604e-29
3.96622e-23
1.50732e-17
4.0295e-12
6.54337e-07
8.42716e-29
3.96661e-23
1.50743e-17
4.02968e-12
6.54352e-07
8.4407e-29
3.97113e-23
1.50867e-17
4.03165e-12
6.54506e-07
8.44392e-29
3.97221e-23
1.50897e-17
4.03213e-12
6.54546e-07
8.4812e-29
3.98443e-23
1.51229e-17
4.03726e-12
6.5492e-07
8.48861e-29
3.98681e-23
1.51293e-17
4.03824e-12
6.54992e-07
8.58121e-29
4.0142e-23
1.51978e-17
4.04677e-12
6.55201e-07
8.59396e-29
4.01747e-23
1.52052e-17
4.04743e-12
6.55157e-07
8.85534e-29
4.06474e-23
1.52493e-17
4.02452e-12
6.47096e-07
1.24427e-28
5.22983e-23
1.81518e-17
4.40319e-12
6.44282e-07
1.21005e-28
5.16664e-23
1.80919e-17
4.42761e-12
6.52402e-07
1.20838e-28
5.16246e-23
1.8083e-17
4.4269e-12
6.5245e-07
1.1959e-28
5.12735e-23
1.80016e-17
4.41762e-12
6.5226e-07
1.1949e-28
5.12432e-23
1.7994e-17
4.41655e-12
6.5219e-07
1.18981e-28
5.10869e-23
1.79546e-17
4.41098e-12
6.51823e-07
1.18937e-28
5.10732e-23
1.79511e-17
4.41046e-12
6.51785e-07
1.18752e-28
5.10153e-23
1.79364e-17
4.40831e-12
6.51633e-07
1.18737e-28
5.10105e-23
1.79351e-17
4.40812e-12
6.51619e-07
1.18691e-28
5.09961e-23
1.79314e-17
4.40758e-12
6.51581e-07
1.18691e-28
5.09961e-23
1.79314e-17
4.40758e-12
6.51581e-07
1.18737e-28
5.10105e-23
1.79351e-17
4.40812e-12
6.51619e-07
1.18752e-28
5.10153e-23
1.79364e-17
4.40831e-12
6.51633e-07
1.18937e-28
5.10732e-23
1.79511e-17
4.41046e-12
6.51785e-07
1.18981e-28
5.10869e-23
1.79546e-17
4.41098e-12
6.51823e-07
1.1949e-28
5.12432e-23
1.7994e-17
4.41655e-12
6.5219e-07
1.1959e-28
5.12735e-23
1.80016e-17
4.41762e-12
6.5226e-07
1.20838e-28
5.16246e-23
1.8083e-17
4.4269e-12
6.5245e-07
1.21005e-28
5.16664e-23
1.80919e-17
4.42761e-12
6.52402e-07
1.24427e-28
5.22983e-23
1.81518e-17
4.40319e-12
6.44282e-07
1.6964e-28
6.59607e-23
2.12974e-17
4.77861e-12
6.41466e-07
1.65166e-28
6.51361e-23
2.12199e-17
4.80459e-12
6.49644e-07
1.6495e-28
6.50838e-23
2.12096e-17
4.80383e-12
6.49695e-07
1.63298e-28
6.46425e-23
2.11142e-17
4.79382e-12
6.49525e-07
1.63165e-28
6.46047e-23
2.11054e-17
4.79268e-12
6.49457e-07
1.62485e-28
6.44085e-23
2.10594e-17
4.78667e-12
6.49098e-07
1.62427e-28
6.43915e-23
2.10553e-17
4.78612e-12
6.4906e-07
1.62179e-28
6.4319e-23
2.10381e-17
4.7838e-12
6.48912e-07
1.62159e-28
6.4313e-23
2.10367e-17
4.7836e-12
6.48898e-07
1.62097e-28
6.42949e-23
2.10324e-17
4.78302e-12
6.4886e-07
1.62097e-28
6.42949e-23
2.10324e-17
4.78302e-12
6.4886e-07
1.62159e-28
6.4313e-23
2.10367e-17
4.7836e-12
6.48898e-07
1.62179e-28
6.4319e-23
2.10381e-17
4.7838e-12
6.48912e-07
1.62427e-28
6.43915e-23
2.10553e-17
4.78612e-12
6.4906e-07
1.62485e-28
6.44085e-23
2.10594e-17
4.78667e-12
6.49098e-07
1.63165e-28
6.46047e-23
2.11054e-17
4.79268e-12
6.49457e-07
1.63298e-28
6.46425e-23
2.11142e-17
4.79382e-12
6.49525e-07
1.6495e-28
6.50838e-23
2.12096e-17
4.80383e-12
6.49695e-07
1.65166e-28
6.51361e-23
2.12199e-17
4.80459e-12
6.49644e-07
1.6964e-28
6.59607e-23
2.12974e-17
4.77861e-12
6.41466e-07
-2.61617e-06
-3.22904e-07
-7.47515e-09
-3.80517e-11
-3.74177e-14
4.91115e-17
5.72095e-17
5.72801e-17
5.72959e-17
5.72983e-17
5.73025e-17
5.73203e-17
5.74201e-17
5.75517e-17
5.8691e-17
5.9728e-17
7.09227e-17
7.72793e-17
2.40267e-16
2.8161e-16
-2.73908e-06
-3.44795e-07
-8.2307e-09
-4.33016e-11
-4.41367e-14
4.74407e-17
5.72071e-17
5.72792e-17
5.72952e-17
5.72974e-17
5.7298e-17
5.73128e-17
5.74144e-17
5.7548e-17
5.87047e-17
5.97529e-17
7.10794e-17
7.74757e-17
2.422e-16
2.83959e-16
-2.74276e-06
-3.45276e-07
-8.24218e-09
-4.33709e-11
-4.42239e-14
4.74175e-17
5.72071e-17
5.72793e-17
5.72953e-17
5.72974e-17
5.72981e-17
5.73132e-17
5.74149e-17
5.75486e-17
5.87057e-17
5.97541e-17
7.10826e-17
7.74792e-17
2.42219e-16
2.83978e-16
-2.75583e-06
-3.46789e-07
-8.26752e-09
-4.34866e-11
-4.43571e-14
4.73788e-17
5.72071e-17
5.72794e-17
5.72954e-17
5.72976e-17
5.72988e-17
5.73153e-17
5.74172e-17
5.7551e-17
5.87091e-17
5.97581e-17
7.10924e-17
7.74898e-17
2.42274e-16
2.84027e-16
-2.75634e-06
-3.46832e-07
-8.26773e-09
-4.34852e-11
-4.43541e-14
4.73793e-17
5.72071e-17
5.72794e-17
5.72954e-17
5.72976e-17
5.72988e-17
5.73153e-17
5.74172e-17
5.75511e-17
5.87092e-17
5.97582e-17
7.10927e-17
7.74901e-17
2.42275e-16
2.84028e-16
-2.75776e-06
-3.46862e-07
-8.26489e-09
-4.34621e-11
-4.43245e-14
4.73851e-17
5.72071e-17
5.72794e-17
5.72954e-17
5.72976e-17
5.72989e-17
5.73154e-17
5.74174e-17
5.75512e-17
5.87094e-17
5.97584e-17
7.10931e-17
7.74906e-17
2.42277e-16
2.84029e-16
-2.75788e-06
-3.46864e-07
-8.26462e-09
-4.34599e-11
-4.43215e-14
4.73858e-17
5.72071e-17
5.72794e-17
5.72954e-17
5.72976e-17
5.72989e-17
5.73154e-17
5.74174e-17
5.75512e-17
5.87094e-17
5.97584e-17
7.10931e-17
7.74906e-17
2.42277e-16
2.84029e-16
-2.75823e-06
-3.46847e-07
-8.26321e-09
-4.34506e-11
-4.43106e-14
4.7388e-17
5.72071e-17
5.72794e-17
5.72954e-17
5.72976e-17
5.72989e-17
5.73154e-17
5.74174e-17
5.75512e-17
5.87094e-17
5.97584e-17
7.10932e-17
7.74906e-17
2.42277e-16
2.84029e-16
-2.75827e-06
-3.46847e-07
-8.26311e-09
-4.34499e-11
-4.43097e-14
4.73882e-17
5.72071e-17
5.72794e-17
5.72954e-17
5.72976e-17
5.72989e-17
5.73154e-17
5.74174e-17
5.75512e-17
5.87094e-17
5.97584e-17
7.10932e-17
7.74906e-17
2.42277e-16
2.84029e-16
-2.75835e-06
-3.46842e-07
-8.26279e-09
-4.34479e-11
-4.43075e-14
4.73886e-17
5.72071e-17
5.72794e-17
5.72954e-17
5.72976e-17
5.72989e-17
5.73154e-17
5.74174e-17
5.75512e-17
5.87094e-17
5.97584e-17
7.10932e-17
7.74906e-17
2.42277e-16
2.84029e-16
-2.75835e-06
-3.46842e-07
-8.26279e-09
-4.34479e-11
-4.43075e-14
4.73886e-17
5.72071e-17
5.72794e-17
5.72954e-17
5.72976e-17
5.72989e-17
5.73154e-17
5.74174e-17
5.75512e-17
5.87094e-17
5.97584e-17
7.10932e-17
7.74906e-17
2.42277e-16
2.84029e-16
-2.75827e-06
-3.46847e-07
-8.26311e-09
-4.34499e-11
-4.43097e-14
4.73882e-17
5.72071e-17
5.72794e-17
5.72954e-17
5.72976e-17
5.72989e-17
5.73154e-17
5.74174e-17
5.75512e-17
5.87094e-17
5.97584e-17
7.10932e-17
7.74906e-17
2.42277e-16
2.84029e-16
-2.75823e-06
-3.46847e-07
-8.26321e-09
-4.34506e-11
-4.43106e-14
4.7388e-17
5.72071e-17
5.72794e-17
5.72954e-17
5.72976e-17
5.72989e-17
5.73154e-17
5.74174e-17
5.75512e-17
5.87094e-17
5.97584e-17
7.10932e-17
7.74906e-17
2.42277e-16
2.84029e-16
-2.75788e-06
-3.46864e-07
-8.26462e-09
-4.34599e-11
-4.43215e-14
4.73858e-17
5.72071e-17
5.72794e-17
5.72954e-17
5.72976e-17
5.72989e-17
5.73154e-17
5.74174e-17
5.75512e-17
5.87094e-17
5.97584e-17
7.10931e-17
7.74906e-17
2.42277e-16
2.84029e-16
-2.75776e-06
-3.46862e-07
-8.26489e-09
-4.34621e-11
-4.43245e-14
4.73851e-17
5.72071e-17
5.72794e-17
5.72954e-17
5.72976e-17
5.72989e-17
5.73154e-17
5.74174e-17
5.75512e-17
5.87094e-17
5.97584e-17
7.10931e-17
7.74906e-17
2.42277e-16
2.84029e-16
-2.75634e-06
-3.46832e-07
-8.26773e-09
-4.34852e-11
-4.43541e-14
4.73793e-17
5.72071e-17
5.72794e-17
5.72954e-17
5.72976e-17
5.72988e-17
5.73153e-17
5.74172e-17
5.75511e-17
5.87092e-17
5.97582e-17
7.10927e-17
7.74901e-17
2.42275e-16
2.84028e-16
-2.75583e-06
-3.46789e-07
-8.26752e-09
-4.34866e-11
-4.43571e-14
4.73788e-17
5.72071e-17
5.72794e-17
5.72954e-17
5.72976e-17
5.72988e-17
5.73153e-17
5.74172e-17
5.7551e-17
5.87091e-17
5.97581e-17
7.10924e-17
7.74898e-17
2.42274e-16
2.84027e-16
-2.74276e-06
-3.45276e-07
-8.24218e-09
-4.33709e-11
-4.42239e-14
4.74175e-17
5.72071e-17
5.72793e-17
5.72953e-17
5.72974e-17
5.72981e-17
5.73132e-17
5.74149e-17
5.75486e-17
5.87057e-17
5.97541e-17
7.10826e-17
7.74792e-17
2.42219e-16
2.83978e-16
-2.73908e-06
-3.44795e-07
-8.2307e-09
-4.33016e-11
-4.41367e-14
4.74407e-17
5.72071e-17
5.72792e-17
5.72952e-17
5.72974e-17
5.7298e-17
5.73128e-17
5.74144e-17
5.7548e-17
5.87047e-17
5.97529e-17
7.10794e-17
7.74757e-17
2.422e-16
2.83959e-16
-2.61617e-06
-3.22904e-07
-7.47515e-09
-3.80517e-11
-3.74177e-14
4.91115e-17
5.72095e-17
5.72801e-17
5.72959e-17
5.72983e-17
5.73025e-17
5.73203e-17
5.74201e-17
5.75517e-17
5.8691e-17
5.9728e-17
7.09227e-17
7.72793e-17
2.40267e-16
2.8161e-16
-6.85084e-05