/*--------------------------------*- C++ -*----------------------------------*\
  =========                 |
  \\      /  F ield         | OpenFOAM: The Open Source CFD Toolbox
   \\    /   O peration     | Website:  https://openfoam.org
    \\  /    A nd           | Version:  8
     \\/     M anipulation  |
\*---------------------------------------------------------------------------*/
FoamFile
{
    version     2.0;
    format      ascii;
    class       volScalarField;
    location    "1.7";
    object      p;
}
// * * * * * * * * * * * * * * * * * * * * * * * * * * * * * * * * * * * * * //

dimensions      [0 2 -2 0 0 0 0];

internalField   nonuniform List<scalar> 
180000
(
0.000987613
0.000921315
0.000966045
0.000818164
0.000898733
0.000973005
0.000906984
0.000951404
0.000804981
0.000884253
0.000972418
0.000906424
0.000950817
0.000804496
0.000883698
0.000968724
0.000902878
0.00094711
0.000801391
0.000880215
0.000968437
0.000902605
0.000946821
0.000801154
0.000879942
0.000967106
0.000901334
0.000945479
0.000800044
0.000878681
0.000966984
0.000901219
0.000945356
0.000799943
0.000878564
0.000966503
0.00090076
0.00094487
0.00079954
0.000878106
0.000966461
0.000900719
0.000944826
0.000799504
0.000878065
0.00096634
0.000900605
0.000944705
0.000799404
0.00087795
0.00096634
0.000900605
0.000944705
0.000799404
0.00087795
0.000966461
0.000900719
0.000944826
0.000799504
0.000878065
0.000966503
0.00090076
0.00094487
0.00079954
0.000878106
0.000966984
0.000901219
0.000945356
0.000799943
0.000878564
0.000967106
0.000901334
0.000945479
0.000800044
0.000878681
0.000968437
0.000902605
0.000946821
0.000801154
0.000879942
0.000968724
0.000902878
0.00094711
0.000801391
0.000880215
0.000972418
0.000906424
0.000950817
0.000804496
0.000883698
0.000973005
0.000906984
0.000951404
0.000804981
0.000884253
0.000987613
0.000921315
0.000966045
0.000818164
0.000898733
0.000767922
0.000743269
0.00076089
0.000694899
0.000734304
0.000762945
0.000737354
0.000755558
0.00068806
0.000727974
0.000762741
0.00073712
0.000755341
0.000687805
0.000727727
0.000761412
0.000735587
0.000753919
0.000686132
0.000726136
0.000761309
0.00073547
0.000753808
0.000686005
0.000726011
0.000760824
0.000734915
0.000753287
0.000685403
0.00072543
0.00076078
0.000734865
0.00075324
0.000685348
0.000725376
0.000760603
0.000734663
0.00075305
0.000685129
0.000725164
0.000760587
0.000734646
0.000753033
0.00068511
0.000725145
0.000760543
0.000734595
0.000752985
0.000685055
0.000725092
0.000760543
0.000734595
0.000752985
0.000685055
0.000725092
0.000760587
0.000734646
0.000753033
0.00068511
0.000725145
0.000760603
0.000734663
0.00075305
0.000685129
0.000725164
0.00076078
0.000734865
0.00075324
0.000685348
0.000725376
0.000760824
0.000734915
0.000753287
0.000685403
0.00072543
0.000761309
0.00073547
0.000753808
0.000686005
0.000726011
0.000761412
0.000735587
0.000753919
0.000686132
0.000726136
0.000762741
0.00073712
0.000755341
0.000687805
0.000727727
0.000762945
0.000737354
0.000755558
0.00068806
0.000727974
0.000767922
0.000743269
0.00076089
0.000694899
0.000734304
0.000555886
0.000534552
0.000550148
0.000495521
0.00053029
0.000551472
0.000529712
0.00054556
0.000490369
0.000525211
0.000551293
0.000529521
0.000545374
0.000490177
0.000525013
0.000550095
0.000528241
0.000544129
0.000488882
0.000523705
0.000550004
0.000528145
0.000544034
0.000488785
0.000523604
0.000549567
0.000527681
0.000543577
0.000488318
0.000523125
0.000549528
0.00052764
0.000543536
0.000488276
0.000523081
0.000549368
0.000527471
0.00054337
0.000488106
0.000522906
0.000549354
0.000527456
0.000543355
0.000488091
0.000522891
0.000549314
0.000527414
0.000543313
0.000488048
0.000522847
0.000549314
0.000527414
0.000543313
0.000488048
0.000522847
0.000549354
0.000527456
0.000543355
0.000488091
0.000522891
0.000549368
0.000527471
0.00054337
0.000488106
0.000522906
0.000549528
0.00052764
0.000543536
0.000488276
0.000523081
0.000549567
0.000527681
0.000543577
0.000488318
0.000523125
0.000550004
0.000528145
0.000544034
0.000488785
0.000523604
0.000550095
0.000528241
0.000544129
0.000488882
0.000523705
0.000551293
0.000529521
0.000545374
0.000490177
0.000525013
0.000551472
0.000529712
0.00054556
0.000490369
0.000525211
0.000555886
0.000534552
0.000550148
0.000495521
0.00053029
0.00052916
0.000501908
0.000521776
0.000456005
0.00049952
0.000523347
0.000496008
0.000515894
0.000450298
0.000493491
0.00052311
0.000495775
0.000515656
0.000450084
0.000493255
0.00052154
0.000494213
0.000514063
0.000448636
0.00049169
0.00052142
0.000494095
0.000513942
0.000448528
0.00049157
0.000520849
0.00049353
0.00051336
0.000448006
0.000490999
0.000520798
0.00049348
0.000513308
0.00044796
0.000490947
0.00052059
0.000493275
0.000513096
0.00044777
0.000490738
0.000520572
0.000493257
0.000513077
0.000447753
0.00049072
0.00052052
0.000493205
0.000513024
0.000447705
0.000490667
0.00052052
0.000493205
0.000513024
0.000447705
0.000490667
0.000520572
0.000493257
0.000513077
0.000447753
0.00049072
0.00052059
0.000493275
0.000513096
0.00044777
0.000490738
0.000520798
0.00049348
0.000513308
0.00044796
0.000490947
0.000520849
0.00049353
0.00051336
0.000448006
0.000490999
0.00052142
0.000494095
0.000513942
0.000448528
0.00049157
0.00052154
0.000494213
0.000514063
0.000448636
0.00049169
0.00052311
0.000495775
0.000515656
0.000450084
0.000493255
0.000523347
0.000496008
0.000515894
0.000450298
0.000493491
0.00052916
0.000501908
0.000521776
0.000456005
0.00049952
0.000554445
0.000525697
0.000547016
0.000476833
0.000526255
0.000548343
0.00051949
0.000540838
0.000470824
0.000519941
0.000548092
0.000519242
0.000540585
0.000470596
0.00051969
0.000546416
0.000517571
0.000538885
0.000469047
0.000518018
0.000546289
0.000517446
0.000538756
0.000468931
0.00051789
0.000545679
0.000516841
0.000538134
0.000468372
0.000517279
0.000545625
0.000516788
0.000538078
0.000468322
0.000517224
0.000545402
0.000516568
0.000537851
0.000468118
0.000517001
0.000545383
0.000516549
0.000537831
0.0004681
0.000516981
0.000545327
0.000516493
0.000537774
0.000468049
0.000516925
0.000545327
0.000516493
0.000537774
0.000468049
0.000516925
0.000545383
0.000516549
0.000537831
0.0004681
0.000516981
0.000545402
0.000516568
0.000537851
0.000468118
0.000517001
0.000545625
0.000516788
0.000538078
0.000468322
0.000517224
0.000545679
0.000516841
0.000538134
0.000468372
0.000517279
0.000546289
0.000517446
0.000538756
0.000468931
0.00051789
0.000546416
0.000517571
0.000538885
0.000469047
0.000518018
0.000548092
0.000519242
0.000540585
0.000470596
0.00051969
0.000548343
0.00051949
0.000540838
0.000470824
0.000519941
0.000554445
0.000525697
0.000547016
0.000476833
0.000526255
0.000566302
0.000538484
0.000559629
0.000490273
0.00054304
0.000560458
0.000532482
0.000553696
0.000484385
0.000536943
0.000560216
0.00053224
0.00055345
0.00048416
0.000536697
0.000558574
0.000530589
0.000551781
0.000482608
0.000535039
0.00055845
0.000530465
0.000551654
0.000482493
0.000534913
0.000557851
0.000529866
0.000551042
0.000481932
0.000534306
0.000557798
0.000529813
0.000550987
0.000481882
0.000534251
0.000557579
0.000529595
0.000550763
0.000481677
0.000534029
0.00055756
0.000529576
0.000550743
0.00048166
0.000534009
0.000557505
0.000529521
0.000550687
0.000481608
0.000533953
0.000557505
0.000529521
0.000550687
0.000481608
0.000533953
0.00055756
0.000529576
0.000550743
0.00048166
0.000534009
0.000557579
0.000529595
0.000550763
0.000481677
0.000534029
0.000557798
0.000529813
0.000550987
0.000481882
0.000534251
0.000557851
0.000529866
0.000551042
0.000481932
0.000534306
0.00055845
0.000530465
0.000551654
0.000482493
0.000534913
0.000558574
0.000530589
0.000551781
0.000482608
0.000535039
0.000560216
0.00053224
0.00055345
0.00048416
0.000536697
0.000560458
0.000532482
0.000553696
0.000484385
0.000536943
0.000566302
0.000538484
0.000559629
0.000490273
0.00054304
0.000565288
0.000538336
0.000559321
0.000491201
0.000547176
0.000559671
0.000532552
0.000553617
0.000485504
0.00054132
0.000559436
0.000532318
0.000553378
0.000485285
0.000541081
0.000557824
0.000530692
0.000551738
0.00048375
0.000539445
0.000557703
0.000530572
0.000551614
0.000483637
0.000539321
0.000557113
0.00052998
0.000551011
0.000483081
0.00053872
0.000557061
0.000529928
0.000550958
0.000483032
0.000538666
0.000556845
0.000529713
0.000550737
0.000482828
0.000538446
0.000556827
0.000529694
0.000550718
0.000482811
0.000538427
0.000556773
0.00052964
0.000550662
0.000482759
0.000538371
0.000556773
0.00052964
0.000550662
0.000482759
0.000538371
0.000556827
0.000529694
0.000550718
0.000482811
0.000538427
0.000556845
0.000529713
0.000550737
0.000482828
0.000538446
0.000557061
0.000529928
0.000550958
0.000483032
0.000538666
0.000557113
0.00052998
0.000551011
0.000483081
0.00053872
0.000557703
0.000530572
0.000551614
0.000483637
0.000539321
0.000557824
0.000530692
0.000551738
0.00048375
0.000539445
0.000559436
0.000532318
0.000553378
0.000485285
0.000541081
0.000559671
0.000532552
0.000553617
0.000485504
0.00054132
0.000565288
0.000538336
0.000559321
0.000491201
0.000547176
0.000562311
0.000535745
0.000556875
0.000489222
0.000548618
0.000556807
0.000530089
0.000551292
0.000483659
0.000542909
0.000556575
0.000529858
0.000551057
0.000483443
0.000542673
0.000554967
0.000528238
0.000549422
0.000481914
0.00054104
0.000554846
0.000528118
0.000549299
0.000481801
0.000540916
0.000554256
0.000527528
0.000548696
0.000481245
0.000540316
0.000554204
0.000527476
0.000548643
0.000481197
0.000540262
0.000553988
0.00052726
0.000548421
0.000480993
0.000540041
0.00055397
0.000527242
0.000548402
0.000480976
0.000540022
0.000553915
0.000527188
0.000548347
0.000480925
0.000539967
0.000553915
0.000527188
0.000548347
0.000480925
0.000539967
0.00055397
0.000527242
0.000548402
0.000480976
0.000540022
0.000553988
0.00052726
0.000548421
0.000480993
0.000540041
0.000554204
0.000527476
0.000548643
0.000481197
0.000540262
0.000554256
0.000527528
0.000548696
0.000481245
0.000540316
0.000554846
0.000528118
0.000549299
0.000481801
0.000540916
0.000554967
0.000528238
0.000549422
0.000481914
0.00054104
0.000556575
0.000529858
0.000551057
0.000483443
0.000542673
0.000556807
0.000530089
0.000551292
0.000483659
0.000542909
0.000562311
0.000535745
0.000556875
0.000489222
0.000548618
0.00056091
0.000534583
0.000555947
0.000488506
0.000550965
0.000555488
0.00052902
0.000550453
0.000483042
0.000545362
0.000555258
0.000528792
0.00055022
0.000482829
0.000545128
0.000553645
0.000527169
0.000548581
0.000481298
0.00054349
0.000553525
0.00052705
0.000548459
0.000481186
0.000543367
0.000552931
0.000526457
0.000547853
0.000480628
0.000542763
0.00055288
0.000526406
0.0005478
0.00048058
0.000542709
0.000552662
0.000526189
0.000547577
0.000480375
0.000542487
0.000552644
0.000526171
0.000547558
0.000480358
0.000542468
0.000552589
0.000526116
0.000547502
0.000480306
0.000542412
0.000552589
0.000526116
0.000547502
0.000480306
0.000542412
0.000552644
0.000526171
0.000547558
0.000480358
0.000542468
0.000552662
0.000526189
0.000547577
0.000480375
0.000542487
0.00055288
0.000526406
0.0005478
0.00048058
0.000542709
0.000552931
0.000526457
0.000547853
0.000480628
0.000542763
0.000553525
0.00052705
0.000548459
0.000481186
0.000543367
0.000553645
0.000527169
0.000548581
0.000481298
0.00054349
0.000555258
0.000528792
0.00055022
0.000482829
0.000545128
0.000555488
0.00052902
0.000550453
0.000483042
0.000545362
0.00056091
0.000534583
0.000555947
0.000488506
0.000550965
0.000560401
0.000534343
0.00055591
0.0004888
0.00055358
0.000555069
0.000528877
0.000550512
0.000483433
0.000548072
0.000554841
0.000528651
0.000550282
0.000483222
0.00054784
0.000553227
0.000527028
0.000548642
0.000481689
0.000546198
0.000553107
0.00052691
0.00054852
0.000481578
0.000546075
0.000552512
0.000526315
0.000547913
0.000481018
0.000545468
0.00055246
0.000526264
0.000547859
0.00048097
0.000545414
0.000552241
0.000526046
0.000547636
0.000480764
0.000545191
0.000552223
0.000526028
0.000547617
0.000480747
0.000545171
0.000552168
0.000525973
0.000547561
0.000480695
0.000545115
0.000552168
0.000525973
0.000547561
0.000480695
0.000545115
0.000552223
0.000526028
0.000547617
0.000480747
0.000545171
0.000552241
0.000526046
0.000547636
0.000480764
0.000545191
0.00055246
0.000526264
0.000547859
0.00048097
0.000545414
0.000552512
0.000526315
0.000547913
0.000481018
0.000545468
0.000553107
0.00052691
0.00054852
0.000481578
0.000546075
0.000553227
0.000527028
0.000548642
0.000481689
0.000546198
0.000554841
0.000528651
0.000550282
0.000483222
0.00054784
0.000555069
0.000528877
0.000550512
0.000483433
0.000548072
0.000560401
0.000534343
0.00055591
0.0004888
0.00055358
0.000559938
0.000534177
0.000555915
0.000489274
0.000555327
0.000554702
0.000528814
0.000550618
0.000484005
0.0005499
0.000554477
0.00052859
0.000550391
0.000483796
0.00054967
0.000552864
0.000526969
0.000548753
0.000482263
0.000548023
0.000552745
0.000526851
0.000548632
0.000482152
0.000547901
0.000552148
0.000526256
0.000548023
0.000481591
0.000547291
0.000552097
0.000526205
0.00054797
0.000481543
0.000547237
0.000551877
0.000525986
0.000547746
0.000481336
0.000547012
0.000551859
0.000525968
0.000547727
0.000481319
0.000546993
0.000551804
0.000525913
0.000547671
0.000481267
0.000546936
0.000551804
0.000525913
0.000547671
0.000481267
0.000546936
0.000551859
0.000525968
0.000547727
0.000481319
0.000546993
0.000551877
0.000525986
0.000547746
0.000481336
0.000547012
0.000552097
0.000526205
0.00054797
0.000481543
0.000547237
0.000552148
0.000526256
0.000548023
0.000481591
0.000547291
0.000552745
0.000526851
0.000548632
0.000482152
0.000547901
0.000552864
0.000526969
0.000548753
0.000482263
0.000548023
0.000554477
0.00052859
0.000550391
0.000483796
0.00054967
0.000554702
0.000528814
0.000550618
0.000484005
0.0005499
0.000559938
0.000534177
0.000555915
0.000489274
0.000555327
0.000559352
0.000533884
0.000555781
0.000489633
0.000553861
0.000554212
0.000528622
0.000550585
0.000484462
0.000548526
0.00055399
0.000528402
0.00055036
0.000484256
0.000548299
0.000552378
0.000526783
0.000548725
0.000482723
0.000546654
0.00055226
0.000526666
0.000548604
0.000482613
0.000546532
0.000551662
0.000526069
0.000547995
0.00048205
0.000545921
0.000551611
0.000526019
0.000547942
0.000482002
0.000545868
0.000551391
0.000525799
0.000547717
0.000481794
0.000545642
0.000551372
0.000525781
0.000547698
0.000481777
0.000545623
0.000551317
0.000525726
0.000547642
0.000481725
0.000545566
0.000551317
0.000525726
0.000547642
0.000481725
0.000545566
0.000551372
0.000525781
0.000547698
0.000481777
0.000545623
0.000551391
0.000525799
0.000547717
0.000481794
0.000545642
0.000551611
0.000526019
0.000547942
0.000482002
0.000545868
0.000551662
0.000526069
0.000547995
0.00048205
0.000545921
0.00055226
0.000526666
0.000548604
0.000482613
0.000546532
0.000552378
0.000526783
0.000548725
0.000482723
0.000546654
0.00055399
0.000528402
0.00055036
0.000484256
0.000548299
0.000554212
0.000528622
0.000550585
0.000484462
0.000548526
0.000559352
0.000533884
0.000555781
0.000489633
0.000553861
0.000558734
0.000533545
0.000555595
0.000489856
0.000551482
0.000553686
0.000528381
0.000550496
0.000484781
0.000546242
0.000553466
0.000528163
0.000550274
0.000484578
0.000546018
0.000551856
0.000526547
0.000548641
0.000483046
0.000544377
0.000551739
0.00052643
0.000548521
0.000482936
0.000544256
0.00055114
0.000525833
0.000547911
0.000482372
0.000543645
0.000551089
0.000525783
0.000547858
0.000482324
0.000543591
0.000550868
0.000525563
0.000547633
0.000482116
0.000543365
0.00055085
0.000525545
0.000547614
0.000482099
0.000543346
0.000550794
0.000525489
0.000547557
0.000482046
0.000543289
0.000550794
0.000525489
0.000547557
0.000482046
0.000543289
0.00055085
0.000525545
0.000547614
0.000482099
0.000543346
0.000550868
0.000525563
0.000547633
0.000482116
0.000543365
0.000551089
0.000525783
0.000547858
0.000482324
0.000543591
0.00055114
0.000525833
0.000547911
0.000482372
0.000543645
0.000551739
0.00052643
0.000548521
0.000482936
0.000544256
0.000551856
0.000526547
0.000548641
0.000483046
0.000544377
0.000553466
0.000528163
0.000550274
0.000484578
0.000546018
0.000553686
0.000528381
0.000550496
0.000484781
0.000546242
0.000558734
0.000533545
0.000555595
0.000489856
0.000551482
0.000558142
0.000533221
0.000555418
0.000489992
0.000549375
0.000553183
0.000528152
0.000550414
0.000485011
0.000544227
0.000552966
0.000527937
0.000550195
0.00048481
0.000544006
0.000551359
0.000526323
0.000548564
0.000483279
0.00054237
0.000551242
0.000526208
0.000548445
0.00048317
0.00054225
0.000550642
0.00052561
0.000547834
0.000482605
0.000541638
0.000550591
0.000525559
0.000547782
0.000482557
0.000541585
0.00055037
0.000525339
0.000547556
0.000482349
0.000541359
0.000550352
0.000525321
0.000547537
0.000482332
0.00054134
0.000550296
0.000525265
0.00054748
0.000482279
0.000541282
0.000550296
0.000525265
0.00054748
0.000482279
0.000541282
0.000550352
0.000525321
0.000547537
0.000482332
0.00054134
0.00055037
0.000525339
0.000547556
0.000482349
0.000541359
0.000550591
0.000525559
0.000547782
0.000482557
0.000541585
0.000550642
0.00052561
0.000547834
0.000482605
0.000541638
0.000551242
0.000526208
0.000548445
0.00048317
0.00054225
0.000551359
0.000526323
0.000548564
0.000483279
0.00054237
0.000552966
0.000527937
0.000550195
0.00048481
0.000544006
0.000553183
0.000528152
0.000550414
0.000485011
0.000544227
0.000558142
0.000533221
0.000555418
0.000489992
0.000549375
0.000557581
0.000532919
0.000555259
0.000490061
0.000547542
0.00055271
0.000527943
0.000550346
0.000485173
0.000542483
0.000552495
0.000527731
0.00055013
0.000484974
0.000542264
0.00055089
0.00052612
0.000548503
0.000483446
0.000540633
0.000550775
0.000526006
0.000548384
0.000483337
0.000540513
0.000550174
0.000525407
0.000547773
0.000482771
0.000539901
0.000550123
0.000525357
0.000547721
0.000482724
0.000539849
0.000549901
0.000525136
0.000547494
0.000482514
0.000539622
0.000549883
0.000525118
0.000547475
0.000482497
0.000539603
0.000549826
0.000525062
0.000547418
0.000482444
0.000539545
0.000549826
0.000525062
0.000547418
0.000482444
0.000539545
0.000549883
0.000525118
0.000547475
0.000482497
0.000539603
0.000549901
0.000525136
0.000547494
0.000482514
0.000539622
0.000550123
0.000525357
0.000547721
0.000482724
0.000539849
0.000550174
0.000525407
0.000547773
0.000482771
0.000539901
0.000550775
0.000526006
0.000548384
0.000483337
0.000540513
0.00055089
0.00052612
0.000548503
0.000483446
0.000540633
0.000552495
0.000527731
0.00055013
0.000484974
0.000542264
0.00055271
0.000527943
0.000550346
0.000485173
0.000542483
0.000557581
0.000532919
0.000555259
0.000490061
0.000547542
0.000557041
0.000532632
0.000555108
0.000490064
0.000545773
0.000552256
0.000527747
0.000550286
0.000485266
0.000540801
0.000552044
0.000527537
0.000550073
0.00048507
0.000540586
0.000550442
0.00052593
0.000548449
0.000483544
0.000538959
0.000550327
0.000525816
0.000548332
0.000483437
0.00053884
0.000549725
0.000525217
0.000547719
0.00048287
0.000538228
0.000549675
0.000525167
0.000547667
0.000482823
0.000538175
0.000549452
0.000524945
0.00054744
0.000482613
0.000537948
0.000549434
0.000524928
0.000547421
0.000482596
0.000537929
0.000549377
0.000524871
0.000547364
0.000482542
0.000537871
0.000549377
0.000524871
0.000547364
0.000482542
0.000537871
0.000549434
0.000524928
0.000547421
0.000482596
0.000537929
0.000549452
0.000524945
0.00054744
0.000482613
0.000537948
0.000549675
0.000525167
0.000547667
0.000482823
0.000538175
0.000549725
0.000525217
0.000547719
0.00048287
0.000538228
0.000550327
0.000525816
0.000548332
0.000483437
0.00053884
0.000550442
0.00052593
0.000548449
0.000483544
0.000538959
0.000552044
0.000527537
0.000550073
0.00048507
0.000540586
0.000552256
0.000527747
0.000550286
0.000485266
0.000540801
0.000557041
0.000532632
0.000555108
0.000490064
0.000545773
0.000556519
0.000532354
0.000554964
0.000489997
0.000543998
0.000551818
0.000527558
0.000550231
0.00048529
0.000539111
0.000551608
0.000527351
0.00055002
0.000485095
0.000538899
0.000550009
0.000525748
0.0005484
0.000483574
0.000537277
0.000549895
0.000525634
0.000548284
0.000483467
0.000537159
0.000549293
0.000525035
0.000547671
0.000482899
0.000536547
0.000549242
0.000524985
0.000547619
0.000482852
0.000536494
0.000549019
0.000524763
0.000547391
0.000482642
0.000536266
0.000549001
0.000524745
0.000547372
0.000482625
0.000536248
0.000548944
0.000524689
0.000547315
0.000482571
0.00053619
0.000548944
0.000524689
0.000547315
0.000482571
0.00053619
0.000549001
0.000524745
0.000547372
0.000482625
0.000536248
0.000549019
0.000524763
0.000547391
0.000482642
0.000536266
0.000549242
0.000524985
0.000547619
0.000482852
0.000536494
0.000549293
0.000525035
0.000547671
0.000482899
0.000536547
0.000549895
0.000525634
0.000548284
0.000483467
0.000537159
0.000550009
0.000525748
0.0005484
0.000483574
0.000537277
0.000551608
0.000527351
0.00055002
0.000485095
0.000538899
0.000551818
0.000527558
0.000550231
0.00048529
0.000539111
0.000556519
0.000532354
0.000554964
0.000489997
0.000543998
0.000556013
0.000532086
0.000554829
0.000489863
0.00054223
0.000551394
0.000527377
0.000550182
0.000485243
0.000537426
0.000551187
0.000527172
0.000549974
0.000485051
0.000537216
0.000549592
0.000525573
0.000548358
0.000483533
0.000535599
0.000549478
0.000525461
0.000548242
0.000483427
0.000535483
0.000548875
0.000524861
0.000547628
0.00048286
0.00053487
0.000548825
0.000524811
0.000547577
0.000482813
0.000534818
0.000548601
0.000524589
0.000547349
0.000482602
0.00053459
0.000548583
0.000524571
0.00054733
0.000482585
0.000534571
0.000548527
0.000524515
0.000547272
0.000482531
0.000534513
0.000548527
0.000524515
0.000547272
0.000482531
0.000534513
0.000548583
0.000524571
0.00054733
0.000482585
0.000534571
0.000548601
0.000524589
0.000547349
0.000482602
0.00053459
0.000548825
0.000524811
0.000547577
0.000482813
0.000534818
0.000548875
0.000524861
0.000547628
0.00048286
0.00053487
0.000549478
0.000525461
0.000548242
0.000483427
0.000535483
0.000549592
0.000525573
0.000548358
0.000483533
0.000535599
0.000551187
0.000527172
0.000549974
0.000485051
0.000537216
0.000551394
0.000527377
0.000550182
0.000485243
0.000537426
0.000556013
0.000532086
0.000554829
0.000489863
0.00054223
0.000555525
0.000531829
0.000554703
0.000489661
0.000540483
0.000550987
0.000527205
0.000550141
0.000485128
0.000535758
0.000550782
0.000527003
0.000549935
0.000484939
0.000535551
0.00054919
0.000525408
0.000548323
0.000483425
0.000533941
0.000549077
0.000525296
0.000548208
0.00048332
0.000533825
0.000548474
0.000524696
0.000547594
0.000482752
0.000533212
0.000548424
0.000524647
0.000547543
0.000482705
0.00053316
0.0005482
0.000524424
0.000547314
0.000482494
0.000532932
0.000548182
0.000524406
0.000547296
0.000482477
0.000532913
0.000548125
0.00052435
0.000547238
0.000482423
0.000532855
0.000548125
0.00052435
0.000547238
0.000482423
0.000532855
0.000548182
0.000524406
0.000547296
0.000482477
0.000532913
0.0005482
0.000524424
0.000547314
0.000482494
0.000532932
0.000548424
0.000524647
0.000547543
0.000482705
0.00053316
0.000548474
0.000524696
0.000547594
0.000482752
0.000533212
0.000549077
0.000525296
0.000548208
0.00048332
0.000533825
0.00054919
0.000525408
0.000548323
0.000483425
0.000533941
0.000550782
0.000527003
0.000549935
0.000484939
0.000535551
0.000550987
0.000527205
0.000550141
0.000485128
0.000535758
0.000555525
0.000531829
0.000554703
0.000489661
0.000540483
0.000555054
0.000531583
0.000554588
0.000489392
0.000538681
0.000550594
0.000527042
0.000550109
0.000484945
0.000534036
0.000550392
0.000526842
0.000549906
0.000484758
0.000533832
0.000548804
0.000525251
0.000548299
0.000483249
0.000532228
0.000548692
0.000525141
0.000548184
0.000483145
0.000532113
0.000548089
0.00052454
0.00054757
0.000482577
0.0005315
0.000548039
0.000524491
0.000547519
0.00048253
0.000531449
0.000547814
0.000524268
0.00054729
0.000482319
0.00053122
0.000547796
0.00052425
0.000547272
0.000482302
0.000531201
0.000547739
0.000524194
0.000547213
0.000482248
0.000531143
0.000547739
0.000524194
0.000547213
0.000482248
0.000531143
0.000547796
0.00052425
0.000547272
0.000482302
0.000531201
0.000547814
0.000524268
0.00054729
0.000482319
0.00053122
0.000548039
0.000524491
0.000547519
0.00048253
0.000531449
0.000548089
0.00052454
0.00054757
0.000482577
0.0005315
0.000548692
0.000525141
0.000548184
0.000483145
0.000532113
0.000548804
0.000525251
0.000548299
0.000483249
0.000532228
0.000550392
0.000526842
0.000549906
0.000484758
0.000533832
0.000550594
0.000527042
0.000550109
0.000484945
0.000534036
0.000555054
0.000531583
0.000554588
0.000489392
0.000538681
-1.74712e-05
1.70572e-05
3.52457e-06
8.28459e-07
2.83849e-07
1.86973e-07
1.66892e-07
1.62836e-07
1.61897e-07
1.61683e-07
1.61621e-07
1.61595e-07
1.61496e-07
1.61387e-07
1.60521e-07
1.59853e-07
1.53417e-07
1.50646e-07
1.11917e-07
1.07813e-07
-1.75969e-05
1.70415e-05
3.55995e-06
8.38857e-07
2.86313e-07
1.87548e-07
1.67011e-07
1.62851e-07
1.61884e-07
1.61663e-07
1.61599e-07
1.61573e-07
1.61472e-07
1.6136e-07
1.6048e-07
1.59805e-07
1.53297e-07
1.5052e-07
1.11617e-07
1.07601e-07
-1.75954e-05
1.70355e-05
3.55862e-06
8.38778e-07
2.86322e-07
1.87557e-07
1.67014e-07
1.62851e-07
1.61884e-07
1.61663e-07
1.61599e-07
1.61572e-07
1.61472e-07
1.6136e-07
1.60479e-07
1.59804e-07
1.53295e-07
1.50518e-07
1.11614e-07
1.07599e-07
-1.75869e-05
1.69969e-05
3.54892e-06
8.37781e-07
2.86246e-07
1.8757e-07
1.6702e-07
1.62853e-07
1.61884e-07
1.61662e-07
1.61598e-07
1.61571e-07
1.6147e-07
1.61358e-07
1.60476e-07
1.59801e-07
1.53288e-07
1.50511e-07
1.11602e-07
1.07592e-07
-1.75856e-05
1.69933e-05
3.54782e-06
8.37621e-07
2.86219e-07
1.87567e-07
1.6702e-07
1.62853e-07
1.61884e-07
1.61662e-07
1.61598e-07
1.61571e-07
1.6147e-07
1.61358e-07
1.60476e-07
1.598e-07
1.53288e-07
1.50511e-07
1.11602e-07
1.07592e-07
-1.7581e-05
1.69787e-05
3.54352e-06
8.37021e-07
2.86118e-07
1.87554e-07
1.67018e-07
1.62853e-07
1.61884e-07
1.61662e-07
1.61598e-07
1.61571e-07
1.6147e-07
1.61358e-07
1.60476e-07
1.598e-07
1.53288e-07
1.50511e-07
1.11602e-07
1.07592e-07
-1.75805e-05
1.69772e-05
3.54307e-06
8.36953e-07
2.86105e-07
1.87552e-07
1.67018e-07
1.62853e-07
1.61884e-07
1.61662e-07
1.61598e-07
1.61571e-07
1.6147e-07
1.61358e-07
1.60476e-07
1.598e-07
1.53288e-07
1.50511e-07
1.11602e-07
1.07592e-07
-1.75791e-05
1.69721e-05
3.54163e-06
8.36751e-07
2.8607e-07
1.87547e-07
1.67017e-07
1.62853e-07
1.61884e-07
1.61662e-07
1.61598e-07
1.61571e-07
1.6147e-07
1.61358e-07
1.60476e-07
1.598e-07
1.53288e-07
1.50511e-07
1.11602e-07
1.07592e-07
-1.7579e-05
1.69716e-05
3.54149e-06
8.3673e-07
2.86066e-07
1.87546e-07
1.67017e-07
1.62853e-07
1.61884e-07
1.61662e-07
1.61598e-07
1.61571e-07
1.6147e-07
1.61358e-07
1.60476e-07
1.598e-07
1.53288e-07
1.50511e-07
1.11602e-07
1.07592e-07
-1.75787e-05
1.69704e-05
3.54116e-06
8.36684e-07
2.86058e-07
1.87545e-07
1.67016e-07
1.62853e-07
1.61884e-07
1.61662e-07
1.61598e-07
1.61571e-07
1.6147e-07
1.61358e-07
1.60476e-07
1.598e-07
1.53288e-07
1.50511e-07
1.11602e-07
1.07592e-07
-1.75787e-05
1.69704e-05
3.54116e-06
8.36684e-07
2.86058e-07
1.87545e-07
1.67016e-07
1.62853e-07
1.61884e-07
1.61662e-07
1.61598e-07
1.61571e-07
1.6147e-07
1.61358e-07
1.60476e-07
1.598e-07
1.53288e-07
1.50511e-07
1.11602e-07
1.07592e-07
-1.7579e-05
1.69716e-05
3.54149e-06
8.3673e-07
2.86066e-07
1.87546e-07
1.67017e-07
1.62853e-07
1.61884e-07
1.61662e-07
1.61598e-07
1.61571e-07
1.6147e-07
1.61358e-07
1.60476e-07
1.598e-07
1.53288e-07
1.50511e-07
1.11602e-07
1.07592e-07
-1.75791e-05
1.69721e-05
3.54163e-06
8.36751e-07
2.8607e-07
1.87547e-07
1.67017e-07
1.62853e-07
1.61884e-07
1.61662e-07
1.61598e-07
1.61571e-07
1.6147e-07
1.61358e-07
1.60476e-07
1.598e-07
1.53288e-07
1.50511e-07
1.11602e-07
1.07592e-07
-1.75805e-05
1.69772e-05
3.54307e-06
8.36953e-07
2.86105e-07
1.87552e-07
1.67018e-07
1.62853e-07
1.61884e-07
1.61662e-07
1.61598e-07
1.61571e-07
1.6147e-07
1.61358e-07
1.60476e-07
1.598e-07
1.53288e-07
1.50511e-07
1.11602e-07
1.07592e-07
-1.7581e-05
1.69787e-05
3.54352e-06
8.37021e-07
2.86118e-07
1.87554e-07
1.67018e-07
1.62853e-07
1.61884e-07
1.61662e-07
1.61598e-07
1.61571e-07
1.6147e-07
1.61358e-07
1.60476e-07
1.598e-07
1.53288e-07
1.50511e-07
1.11602e-07
1.07592e-07
-1.75856e-05
1.69933e-05
3.54782e-06
8.37621e-07
2.86219e-07
1.87567e-07
1.6702e-07
1.62853e-07
1.61884e-07
1.61662e-07
1.61598e-07
1.61571e-07
1.6147e-07
1.61358e-07
1.60476e-07
1.598e-07
1.53288e-07
1.50511e-07
1.11602e-07
1.07592e-07
-1.75869e-05
1.69969e-05
3.54892e-06
8.37781e-07
2.86246e-07
1.8757e-07
1.6702e-07
1.62853e-07
1.61884e-07
1.61662e-07
1.61598e-07
1.61571e-07
1.6147e-07
1.61358e-07
1.60476e-07
1.59801e-07
1.53288e-07
1.50511e-07
1.11602e-07
1.07592e-07
-1.75954e-05
1.70355e-05
3.55862e-06
8.38778e-07
2.86322e-07
1.87557e-07
1.67014e-07
1.62851e-07
1.61884e-07
1.61663e-07
1.61599e-07
1.61572e-07
1.61472e-07
1.6136e-07
1.60479e-07
1.59804e-07
1.53295e-07
1.50518e-07
1.11614e-07
1.07599e-07
-1.75969e-05
1.70415e-05
3.55995e-06
8.38857e-07
2.86313e-07
1.87548e-07
1.67011e-07
1.62851e-07
1.61884e-07
1.61663e-07
1.61599e-07
1.61573e-07
1.61472e-07
1.6136e-07
1.6048e-07
1.59805e-07
1.53297e-07
1.5052e-07
1.11617e-07
1.07601e-07
-1.74712e-05
1.70572e-05
3.52457e-06
8.28459e-07
2.83849e-07
1.86973e-07
1.66892e-07
1.62836e-07
1.61897e-07
1.61683e-07
1.61621e-07
1.61595e-07
1.61496e-07
1.61387e-07
1.60521e-07
1.59853e-07
1.53417e-07
1.50646e-07
1.11917e-07
1.07813e-07
-1.71136e-05
1.72421e-05
3.55698e-06
8.35185e-07
2.8516e-07
1.87251e-07
1.6695e-07
1.62907e-07
1.61989e-07
1.61772e-07
1.61709e-07
1.61682e-07
1.61583e-07
1.61471e-07
1.60566e-07
1.59835e-07
1.53335e-07
1.50539e-07
1.11322e-07
1.07189e-07
-1.72327e-05
1.72267e-05
3.59275e-06
8.45694e-07
2.87653e-07
1.87832e-07
1.67071e-07
1.62919e-07
1.61976e-07
1.61753e-07
1.61688e-07
1.61661e-07
1.61559e-07
1.61445e-07
1.60523e-07
1.59786e-07
1.53214e-07
1.50411e-07
1.11018e-07
1.06973e-07
-1.72309e-05
1.72206e-05
3.5914e-06
8.45614e-07
2.87662e-07
1.87841e-07
1.67074e-07
1.6292e-07
1.61977e-07
1.61752e-07
1.61687e-07
1.6166e-07
1.61558e-07
1.61445e-07
1.60523e-07
1.59785e-07
1.53212e-07
1.50409e-07
1.11015e-07
1.06971e-07
-1.72213e-05
1.71817e-05
3.58161e-06
8.44609e-07
2.87585e-07
1.87855e-07